2H-MoS2                                 
   1.00000000000000     
     3.179268   -0.000000    0.000000
    -1.589634    2.753326    0.000000
     0.000000    0.000000   13.745283
   Mo   S 
     2     4
Direct
  0.666667  0.333333  0.250000
  0.333333  0.666667  0.750000
  0.333333  0.666667  0.136084
  0.666667  0.333333  0.636084
  0.333333  0.666667  0.363916
  0.666667  0.333333  0.863916
 
   28   28  128
 0.74551     0.75710     0.79282     0.85351     0.93774      1.0436      1.1716      1.3229      1.4921      1.6648    
  1.8233      1.9545      2.0524      2.1135      2.1345      2.1136      2.0524      1.9546      1.8233      1.6649    
  1.4922      1.3230      1.1718      1.0437     0.93788     0.85362     0.79289     0.75714     0.75735     0.75722    
 0.78070     0.82960     0.90473      1.0035      1.1217      1.2572      1.4104      1.5783      1.7494      1.9058    
  2.0311      2.1158      2.1558      2.1496      2.0994      2.0126      1.8974      1.7589      1.6003      1.4305    
  1.2649      1.1180     0.99664     0.90058     0.82859     0.78086     0.79256     0.78094     0.79268     0.82773    
 0.88935     0.98015      1.0967      1.2309      1.3768      1.5332      1.6980      1.8623      2.0109      2.1278    
  2.2007      2.2225      2.1917      2.1132      1.9986      1.8613      1.7104      1.5503      1.3858      1.2274    
  1.0880     0.97534     0.88962     0.82880     0.85184     0.82769     0.82955     0.85268     0.89741     0.97117    
  1.0779      1.2118      1.3630      1.5242      1.6893      1.8519      2.0055      2.1415      2.2454      2.3023    
  2.3043      2.2519      2.1498      2.0083      1.8459      1.6800      1.5168      1.3565      1.2056      1.0772    
 0.97711     0.90256     0.93788     0.89827     0.88977     0.90560     0.93781     0.99239      1.0796      1.1987    
  1.3432      1.5097      1.6906      1.8681      2.0292      2.1730      2.2956      2.3795      2.4099      2.3878    
  2.3171      2.1951      2.0293      1.8460      1.6696      1.5029      1.3433      1.2010      1.0884      1.0028    
  1.0518     0.99577     0.97216     0.98114      1.0069      1.0477      1.1178      1.2196      1.3429      1.4904    
  1.6708      1.8695      2.0549      2.2150      2.3552      2.4644      2.5177      2.5116      2.4628      2.3726    
  2.2293      2.0444      1.8534      1.6750      1.5047      1.3466      1.2193      1.1259      1.1887      1.1221    
  1.0796      1.0763      1.0966      1.1260      1.1802      1.2725      1.3855      1.5065      1.6568      1.8491    
  2.0537      2.2366      2.3981      2.5395      2.6296      2.6437      2.6001      2.5239      2.4064      2.2379    
  2.0454      1.8615      1.6865      1.5151      1.3685      1.2651      1.3384      1.2726      1.2157      1.1948    
  1.2078      1.2270      1.2572      1.3306      1.4430      1.5594      1.6807      1.8409      2.0381      2.2313    
  2.4041      2.5684      2.7049      2.7656      2.7421      2.6701      2.5649      2.4119      2.2226      2.0372    
  1.8677      1.6971      1.5349      1.4153      1.4922      1.4353      1.3773      1.3399      1.3433      1.3600    
  1.3687      1.4027      1.4921      1.6093      1.7231      1.8547      2.0291      2.2186      2.3891      2.5506    
  2.7103      2.8237      2.8482      2.7998      2.7103      2.5745      2.3895      2.1962      2.0293      1.8726    
  1.7107      1.5751      1.6464      1.5971      1.5518      1.5076      1.4978      1.5172      1.5252      1.5257    
  1.5660      1.6556      1.7587      1.8693      2.0174      2.1982      2.3684      2.5173      2.6675      2.8042    
  2.8749      2.8656      2.8063      2.7040      2.5423      2.3461      2.1703      2.0250      1.8797      1.7402    
  1.7980      1.7496      1.7230      1.6877      1.6654      1.6791      1.6992      1.6963      1.6979      1.7403    
  1.8106      1.8893      1.9983      2.1551      2.3255      2.4731      2.6084      2.7416      2.8355      2.8564    
  2.8228      2.7575      2.6423      2.4709      2.2917      2.1480      2.0236      1.8977      1.9383      1.8893    
  1.8786      1.8665      1.8456      1.8453      1.8657      1.8728      1.8636      1.8716      1.9057      1.9464    
  2.0024      2.1066      2.2525      2.3972      2.5257      2.6517      2.7579      2.8020      2.7824      2.7339    
  2.6600      2.5360      2.3779      2.2373      2.1295      2.0291      2.0524      2.0105      2.0112      2.0277    
  2.0292      2.0266      2.0369      2.0434      2.0293      2.0158      2.0238      2.0392      2.0524      2.0928    
  2.1830      2.2985      2.4097      2.5216      2.6337      2.7064      2.7103      2.6691      2.6127      2.5299    
  2.4099      2.2857      2.1920      2.1196      2.1265      2.1031      2.1149      2.1562      2.1923      2.2103    
  2.2238      2.2290      2.2068      2.1671      2.1425      2.1360      2.1262      2.1200      2.1494      2.2159    
  2.2910      2.3680      2.4602      2.5486      2.5885      2.5708      2.5266      2.4692      2.3860      2.2876    
  2.2096      2.1623      2.1519      2.1560      2.1829      2.2437      2.3131      2.3634      2.3977      2.4196    
  2.4067      2.3502      2.2831      2.2366      2.2006      2.1624      2.1432      2.1623      2.2004      2.2362    
  2.2828      2.3499      2.4065      2.4194      2.3976      2.3633      2.3130      2.2437      2.1829      2.1560    
  2.1264      2.1622      2.2096      2.2876      2.3861      2.4692      2.5267      2.5709      2.5887      2.5489    
  2.4605      2.3684      2.2913      2.2162      2.1495      2.1200      2.1261      2.1358      2.1422      2.1668    
  2.2065      2.2289      2.2237      2.2102      2.1922      2.1561      2.1149      2.1032      2.0524      2.1195    
  2.1919      2.2856      2.4099      2.5300      2.6128      2.6692      2.7104      2.7065      2.6340      2.5220    
  2.4101      2.2988      2.1832      2.0929      2.0524      2.0391      2.0236      2.0155      2.0291      2.0431    
  2.0368      2.0265      2.0292      2.0277      2.0112      2.0105      1.9382      2.0290      2.1294      2.2372    
  2.3778      2.5360      2.6600      2.7341      2.7825      2.8021      2.7581      2.6520      2.5260      2.3976    
  2.2529      2.1068      2.0025      1.9464      1.9056      1.8715      1.8634      1.8725      1.8654      1.8451    
  1.8454      1.8664      1.8786      1.8892      1.7980      1.8976      2.0235      2.1479      2.2916      2.4708    
  2.6423      2.7576      2.8230      2.8565      2.8356      2.7418      2.6087      2.4734      2.3259      2.1554    
  1.9985      1.8894      1.8106      1.7402      1.6978      1.6961      1.6990      1.6789      1.6653      1.6875    
  1.7229      1.7496      1.6463      1.7401      1.8797      2.0249      2.1701      2.3459      2.5423      2.7040    
  2.8064      2.8658      2.8750      2.8043      2.6677      2.5175      2.3687      2.1985      2.0177      1.8695    
  1.7588      1.6556      1.5659      1.5255      1.5250      1.5170      1.4976      1.5074      1.5517      1.5969    
  1.4921      1.5750      1.7106      1.8725      2.0291      2.1961      2.3894      2.5744      2.7104      2.7999    
  2.8483      2.8238      2.7104      2.5508      2.3893      2.2188      2.0293      1.8550      1.7233      1.6094    
  1.4921      1.4026      1.3686      1.3598      1.3432      1.3398      1.3772      1.4352      1.3382      1.4152    
  1.5348      1.6970      1.8676      2.0371      2.2224      2.4118      2.5648      2.6701      2.7422      2.7657    
  2.7050      2.5685      2.4042      2.2315      2.0384      1.8411      1.6809      1.5595      1.4431      1.3306    
  1.2572      1.2269      1.2077      1.1946      1.2155      1.2724      1.1886      1.2649      1.3684      1.5149    
  1.6864      1.8614      2.0453      2.2378      2.4063      2.5238      2.6001      2.6437      2.6297      2.5396    
  2.3982      2.2367      2.0539      1.8493      1.6570      1.5067      1.3856      1.2726      1.1802      1.1259    
  1.0965      1.0761      1.0794      1.1219      1.0517      1.1258      1.2192      1.3464      1.5046      1.6749    
  1.8533      2.0443      2.2291      2.3725      2.4627      2.5116      2.5177      2.4644      2.3553      2.2151    
  2.0550      1.8697      1.6710      1.4906      1.3431      1.2197      1.1179      1.0477      1.0069     0.98105    
 0.97204     0.99563     0.93774      1.0027      1.0882      1.2009      1.3432      1.5028      1.6695      1.8459    
  2.0291      2.1950      2.3169      2.3877      2.4099      2.3795      2.2956      2.1730      2.0292      1.8682    
  1.6907      1.5099      1.3433      1.1988      1.0797     0.99244     0.93781     0.90556     0.88969     0.89816    
 0.85173     0.90243     0.97697      1.0770      1.2055      1.3563      1.5167      1.6799      1.8458      2.0082    
  2.1496      2.2518      2.3042      2.3022      2.2454      2.1415      2.0056      1.8520      1.6894      1.5243    
  1.3631      1.2119      1.0780     0.97126     0.89745     0.85268     0.82951     0.82761     0.79248     0.82869    
 0.88949     0.97519      1.0879      1.2273      1.3857      1.5502      1.7103      1.8612      1.9985      2.1131    
  2.1916      2.2225      2.2007      2.1278      2.0109      1.8623      1.6981      1.5334      1.3770      1.2311    
  1.0968     0.98027     0.88943     0.82777     0.79269     0.78091     0.75731     0.78079     0.82849     0.90044    
 0.99649      1.1179      1.2647      1.4304      1.6002      1.7588      1.8974      2.0125      2.0994      2.1495    
  2.1558      2.1158      2.0311      1.9058      1.7494      1.5784      1.4105      1.2574      1.1219      1.0037    
 0.90485     0.82967     0.78074     0.75722     0.76690     0.77934     0.81763     0.88263     0.97298      1.0868    
  1.2245      1.3866      1.5674      1.7522      1.9228      2.0653      2.1724      2.2393      2.2619      2.2389    
  2.1724      2.0663      1.9244      1.7534      1.5676      1.3859      1.2237      1.0865     0.97312     0.88287    
 0.81778     0.77940     0.77958     0.77948     0.80219     0.84945     0.92211      1.0178      1.1325      1.2645    
  1.4139      1.5777      1.7447      1.8976      2.0204      2.1037      2.1429      2.1365      2.0869      2.0019    
  1.8897      1.7548      1.6000      1.4337      1.2717      1.1286      1.0109     0.91808     0.84853     0.80235    
 0.81736     0.80743     0.81761     0.84774     0.90101     0.98015      1.0820      1.1993      1.3270      1.4644    
  1.6098      1.7553      1.8872      1.9913      2.0563      2.0755      2.0472      1.9764      1.8742      1.7532    
  1.6213      1.4813      1.3365      1.1965      1.0738     0.97549     0.90132     0.84873     0.88095     0.86258    
 0.86460     0.88201     0.91511     0.97155      1.0554      1.1612      1.2805      1.4078      1.5387      1.6675    
  1.7897      1.8991      1.9841      2.0312      2.0333      1.9909      1.9074      1.7915      1.6601      1.5287    
  1.4012      1.2751      1.1556      1.0546     0.97742     0.92022     0.97312     0.94580     0.94164     0.95347    
 0.97305      1.0069      1.0659      1.1492      1.2508      1.3699      1.5014      1.6299      1.7442      1.8467    
  1.9368      1.9999      2.0231      2.0085      1.9591      1.8696      1.7443      1.6074      1.4807      1.3639    
  1.2510      1.1507      1.0742      1.0175      1.0951      1.0603      1.0476      1.0569      1.0717      1.0902    
  1.1284      1.1891      1.2623      1.3516      1.4696      1.6044      1.7275      1.8303      1.9229      1.9977    
  2.0325      2.0260      1.9959      1.9414      1.8460      1.7175      1.5883      1.4740      1.3657      1.2646    
  1.1880      1.1370      1.2416      1.2078      1.1850      1.1890      1.2030      1.2114      1.2316      1.2790    
  1.3362      1.3914      1.4687      1.5848      1.7127      1.8224      1.9200      2.0119      2.0702      2.0722    
  2.0389      1.9955      1.9293      1.8244      1.7039      1.5969      1.4986      1.3993      1.3182      1.2719    
  1.4022      1.3833      1.3575      1.3529      1.3670      1.3699      1.3671      1.3931      1.4455      1.4898    
  1.5295      1.6030      1.7119      1.8180      1.9105      2.0088      2.0988      2.1344      2.1095      2.0620    
  2.0053      1.9187      1.8082      1.7098      1.6305      1.5469      1.4650      1.4177      1.5676      1.5737    
  1.5610      1.5511      1.5648      1.5729      1.5529      1.5401      1.5675      1.6084      1.6333      1.6685    
  1.7441      1.8352      1.9114      1.9904      2.0871      2.1610      2.1709      2.1357      2.0872      2.0155    
  1.9114      1.8109      1.7443      1.6885      1.6218      1.5733      1.7338      1.7644      1.7811      1.7782    
  1.7900      1.8105      1.7971      1.7542      1.7329      1.7447      1.7546      1.7607      1.8000      1.8723    
  1.9369      1.9887      2.0594      2.1402      2.1817      2.1718      2.1425      2.0979      2.0152      1.9132    
  1.8432      1.8092      1.7728      1.7350      1.8975      1.9454      1.9986      2.0214      2.0347      2.0614    
  2.0697      2.0295      1.9718      1.9366      1.9125      1.8821      1.8738      1.9124      1.9675      2.0066    
  2.0477      2.1090      2.1575      2.1620      2.1440      2.1258      2.0837      2.0045      1.9321      1.9054    
  1.9007      1.8899      2.0490      2.1114      2.1980      2.2623      2.2936      2.3205      2.3417      2.3212    
  2.2577      2.1894      2.1289      2.0586      1.9922      1.9700      1.9916      2.0183      2.0408      2.0808    
  2.1263      2.1379      2.1172      2.1008      2.0895      2.0519      1.9979      1.9755      1.9937      2.0194    
  2.1724      2.2552      2.3689      2.4797      2.5514      2.5921      2.6181      2.6102      2.5515      2.4663    
  2.3807      2.2845      2.1724      2.0805      2.0385      2.0274      2.0229      2.0367      2.0746      2.1005    
  2.0871      2.0611      2.0523      2.0453      2.0231      2.0138      2.0476      2.1082      2.2522      2.3644    
  2.5026      2.6544      2.7782      2.8567      2.9015      2.9076      2.8545      2.7533      2.6404      2.5236    
  2.3873      2.2451      2.1363      2.0687      2.0193      1.9876      1.9933      2.0217      2.0302      2.0118    
  1.9986      2.0024      2.0064      2.0159      2.0622      2.1496      2.2794      2.4259      2.5900      2.7749    
  2.9478      3.0754      3.1572      3.1952      3.1667      3.0630      2.9186      2.7682      2.6077      2.4321    
  2.2706      2.1496      2.0560      1.9743      1.9232      1.9172      1.9289      1.9267      1.9204      1.9314    
  1.9542      1.9822      2.0385      2.1431      2.2518      2.4320      2.6234      2.8361      3.0513      3.2271    
  3.3481      3.4241      3.4411      3.3694      3.2185      3.0343      2.8399      2.6298      2.4196      2.2459    
  2.1144      1.9998      1.8999      1.8401      1.8213      1.8143      1.8099      1.8264      1.8660      1.9135    
  1.9788      2.0914      2.1724      2.3805      2.5990      2.8343      3.0855      3.3107      3.4720      3.5761    
  3.6321      3.6114      3.4919      3.3030      3.0857      2.8467      2.5903      2.3546      2.1724      2.0289    
  1.9008      1.8003      1.7441      1.7150      1.6948      1.6995      1.7442      1.8109      1.8876      2.0008    
  2.0500      2.2738      2.5168      2.7688      3.0433      3.3163      3.5309      3.6673      3.7465      3.7649    
  3.6899      3.5233      3.3070      3.0622      2.7835      2.4950      2.2477      2.0567      1.8974      1.7650    
  1.6797      1.6346      1.6001      1.5805      1.6078      1.6809      1.7706      1.8820      1.8990      2.1203    
  2.3804      2.6460      2.9271      3.2284      3.4998      3.6894      3.8001      3.8480      3.8119      3.6745    
  3.4682      3.2310      2.9598      2.6537      2.3569      2.1116      1.9093      1.7350      1.6095      1.5458    
  1.5103      1.4781      1.4777      1.5367      1.6331      1.7449      1.7348      1.9364      2.1979      2.4760    
  2.7568      3.0590      3.3630      3.6089      3.7690      3.8567      3.8654      3.7669      3.5747      3.3395    
  3.0804      2.7840      2.4703      2.1894      1.9540      1.7424      1.5646      1.4562      1.4088      1.3776    
  1.3593      1.3924      1.4817      1.5953      1.5674      1.7425      1.9853      2.2670      2.5513      2.8438    
  3.1498      3.4275      3.6320      3.7628      3.8238      3.7853      3.6321      3.4051      3.1492      2.8647    
  2.5515      2.2515      1.9988      1.7760      1.5675      1.4057      1.3183      1.2772      1.2508      1.2589    
  1.3274      1.4372      1.4011      1.5533      1.7639      2.0302      2.3153      2.6031      2.9008      3.1878    
  3.4185      3.5770      3.6749      3.6971      3.6099      3.4221      3.1807      2.9088      2.6033      2.2894    
  2.0150      1.7883      1.5811      1.3948      1.2645      1.1951      1.1569      1.1448      1.1848      1.2788    
  1.2405      1.3752      1.5526      1.7863      2.0561      2.3367      2.6259      2.9153      3.1658      3.3456    
  3.4601      3.5156      3.4880      3.3606      3.1586      2.9149      2.6341      2.3243      2.0268      1.7774    
  1.5689      1.3833      1.2335      1.1370      1.0819      1.0535      1.0656      1.1328      1.0945      1.2112    
  1.3617      1.5587      1.7976      2.0574      2.3290      2.6100      2.8750      3.0840      3.2207      3.2934    
  3.2990      3.2222      3.0677      2.8624      2.6212      2.3455      2.0537      1.7832      1.5541      1.3613    
  1.2038      1.0912      1.0213     0.98113     0.97250      1.0103     0.97298      1.0672      1.1941      1.3595    
  1.5646      1.7959      2.0401      2.2949      2.5513      2.7801      2.9509      3.0527      3.0855      3.0448    
  2.9304      2.7589      2.5514      2.3169      2.0617      1.8037      1.5648      1.3567      1.1851      1.0571    
 0.97305     0.92301     0.90143     0.91594     0.88098     0.95010      1.0525      1.1897      1.3639      1.5680    
  1.7879      2.0140      2.2418      2.4602      2.6476      2.7825      2.8520      2.8502      2.7765      2.6394    
  2.4567      2.2467      2.0230      1.7963      1.5759      1.3708      1.1907      1.0467     0.94505     0.88170    
 0.84937     0.84762     0.81737     0.86367     0.94140      1.0509      1.1938      1.3693      1.5689      1.7784    
  1.9850      2.1806      2.3569      2.5015      2.5987      2.6359      2.6077      2.5159      2.3686      2.1807    
  1.9719      1.7614      1.5607      1.3738      1.2032      1.0561     0.94138     0.86267     0.81745     0.80239    
 0.77957     0.80727     0.86346     0.94825      1.0614      1.2038      1.3750      1.5676      1.7662      1.9540    
  2.1201      2.2582      2.3613      2.4197      2.4257      2.3775      2.2769      2.1290      1.9452      1.7445    
  1.5475      1.3672      1.2076      1.0686     0.95280     0.86472     0.80722     0.77947     0.83221     0.84728    
 0.89343     0.97158      1.0805      1.2183      1.3852      1.5810      1.7987      2.0222      2.2312      2.4089    
  2.5442      2.6292      2.6579      2.6284      2.5442      2.4109      2.2344      2.0246      1.7988      1.5794    
  1.3835      1.2176      1.0806     0.97196     0.89366     0.84736     0.84752     0.84743     0.87266     0.92486    
  1.0049      1.1107      1.2385      1.3866      1.5544      1.7381      1.9251      2.0969      2.2362      2.3317    
  2.3774      2.3707      2.3146      2.2177      2.0896      1.9358      1.7606      1.5740      1.3934      1.2344    
  1.1039      1.0010     0.92401     0.87281     0.89316     0.88339     0.89354     0.92329     0.97586      1.0541    
  1.1553      1.2727      1.4018      1.5419      1.6905      1.8386      1.9724      2.0779      2.1440      2.1635    
  2.1347      2.0627      1.9586      1.8354      1.7012      1.5588      1.4119      1.2706      1.1474      1.0496    
 0.97622     0.92421     0.96991     0.95453     0.95671     0.97118     0.99824      1.0459      1.1184      1.2108    
  1.3158      1.4291      1.5466      1.6620      1.7706      1.8676      1.9430      1.9850      1.9873      1.9502    
  1.8758      1.7716      1.6532      1.5360      1.4232      1.3115      1.2057      1.1175      1.0517      1.0033    
  1.0806      1.0618      1.0608      1.0699      1.0806      1.1000      1.1400      1.1997      1.2740      1.3636    
  1.4652      1.5638      1.6482      1.7223      1.7884      1.8352      1.8527      1.8441      1.8115      1.7461    
  1.6483      1.5409      1.4448      1.3583      1.2742      1.2006      1.1479      1.1109      1.2266      1.2087    
  1.2048      1.2146      1.2204      1.2211      1.2342      1.2636      1.2993      1.3464      1.4194      1.5083    
  1.5844      1.6413      1.6928      1.7360      1.7530      1.7460      1.7339      1.7124      1.6584      1.5749    
  1.4921      1.4241      1.3601      1.3004      1.2615      1.2433      1.4024      1.3968      1.3913      1.4018    
  1.4103      1.4003      1.3910      1.4002      1.4115      1.4139      1.4335      1.4893      1.5547      1.6007    
  1.6383      1.6805      1.7049      1.6938      1.6718      1.6633      1.6486      1.6034      1.5454      1.5012    
  1.4637      1.4211      1.3925      1.3936      1.5966      1.6206      1.6237      1.6343      1.6494      1.6372    
  1.6035      1.5861      1.5851      1.5668      1.5369      1.5372      1.5701      1.5971      1.6113      1.6402    
  1.6777      1.6838      1.6575      1.6389      1.6366      1.6200      1.5862      1.5668      1.5653      1.5553    
  1.5416      1.5570      1.7988      1.8655      1.8970      1.9142      1.9382      1.9379      1.8893      1.8307    
  1.7988      1.7685      1.7124      1.6613      1.6481      1.6476      1.6302      1.6211      1.6454      1.6710    
  1.6629      1.6442      1.6455      1.6475      1.6297      1.6213      1.6483      1.6833      1.7017      1.7323    
  2.0037      2.1144      2.1945      2.2350      2.2696      2.2912      2.2551      2.1668      2.0824      2.0164    
  1.9356      1.8424      1.7795      1.7483      1.7076      1.6563      1.6361      1.6490      1.6532      1.6428    
  1.6514      1.6769      1.6842      1.6825      1.7180      1.7903      1.8563      1.9148      2.2058      2.3543    
  2.4932      2.5802      2.6333      2.6745      2.6695      2.5878      2.4647      2.3460      2.2233      2.0824    
  1.9582      1.8806      1.8200      1.7451      1.6811      1.6568      1.6486      1.6324      1.6343      1.6746    
  1.7193      1.7430      1.7829      1.8737      1.9867      2.0898      2.3925      2.5761      2.7720      2.9253    
  3.0188      3.0786      3.1006      3.0469      2.9188      2.7619      2.5945      2.4036      2.2085      2.0564    
  1.9509      1.8543      1.7616      1.7028      1.6752      1.6466      1.6246      1.6482      1.7121      1.7735    
  1.8330      1.9339      2.0810      2.2362      2.5442      2.7680      3.0147      3.2413      3.4021      3.4994    
  3.5457      3.5188      3.4022      3.2262      3.0258      2.7979      2.5442      2.3083      2.1261      1.9813    
  1.8524      1.7574      1.7097      1.6795      1.6454      1.6380      1.6860      1.7665      1.8527      1.9669    
  2.1352      2.3369      2.6421      2.9128      3.2063      3.5005      3.7429      3.9063      3.9961      4.0031    
  3.9055      3.7183      3.4862      3.2273      2.9357      2.6344      2.3705      2.1565      1.9724      1.8222    
  1.7314      1.6909      1.6628      1.6437      1.6668      1.7407      1.8418      1.9692      2.1498      2.3843    
  2.6754      2.9933      3.3316      3.6835      4.0042      4.2481      4.4043      4.4681      4.4143      4.2365    
  3.9758      3.6772      3.3493      2.9993      2.6666      2.3842      2.1435      1.9326      1.7739      1.6868    
  1.6477      1.6285      1.6397      1.7018      1.8059      1.9409      2.1260      2.3776      2.6414      2.9992    
  3.3783      3.7781      4.1674      4.4906      4.7189      4.8509      4.8673      4.7393      4.4822      4.1510    
  3.7819      3.3844      2.9872      2.6360      2.3430      2.0869      1.8684      1.7153      1.6317      1.5921    
  1.5886      1.6382      1.7416      1.8818      2.0657      2.3198      2.5442      2.9286      3.3405      3.7764    
  4.2223      4.6220      4.9231      5.1172      5.2032      5.1506      4.9418      4.6146      4.2225      3.7881    
  3.3318      2.9036      2.5442      2.2452      1.9868      1.7820      1.6481      1.5712      1.5358      1.5570    
  1.6482      1.7911      1.9729      2.2177      2.3945      2.7866      3.2203      3.6777      4.1597      4.6272    
  5.0088      5.2684      5.4123      5.4296      5.2896      5.0017      4.6186      4.1775      3.6915      3.1992    
  2.7609      2.3996      2.0968      1.8489      1.6749      1.5687      1.5037      1.4848      1.5422      1.6743    
  1.8530      2.0824      2.2090      2.5854      3.0255      3.4921      3.9843      4.4917      4.9492      5.2893    
  5.4979      5.5790      5.5090      5.2752      4.9196      4.4943      4.0155      3.4999      3.0035      2.5762    
  2.2169      1.9148      1.6902      1.5541      1.4746      1.4285      1.4430      1.5445      1.7122      1.9253    
  2.0059      2.3459      2.7709      3.2366      3.7222      4.2327      4.7331      5.1482      5.4334      5.5872    
  5.5953      5.4315      5.1159      4.7109      4.2527      3.7483      3.2325      2.7639      2.3623      2.0118    
  1.7242      1.5333      1.4302      1.3717      1.3545      1.4149      1.5582      1.7546      1.7987      2.0926    
  2.4790      2.9286      3.4020      3.8948      4.3979      4.8543      5.2032      5.4276      5.5201      5.4488    
  5.2032      4.8330      4.3968      3.9139      3.4022      2.9151      2.4933      2.1253      1.7988      1.5458    
  1.3926      1.3123      1.2740      1.2958      1.4023      1.5764      1.5947      1.8447      2.1772      2.5884    
  3.0403      3.5109      3.9960      4.4611      4.8458      5.1182      5.2756      5.2965      5.1492      4.8494    
  4.4544      4.0030      3.5099      3.0148      2.5741      2.2014      1.8724      1.5896      1.3865      1.2682    
  1.2062      1.1951      1.2590      1.4000      1.4003      1.6121      1.8891      2.2438      2.6551      3.0948    
  3.5531      4.0097      4.4130      4.7168      4.9119      4.9944      4.9382      4.7311      4.4067      4.0099    
  3.5608      3.0822      2.6258      2.2342      1.9044      1.6207      1.3948      1.2432      1.1551      1.1163    
  1.1397      1.2388      1.2256      1.4001      1.6285      1.9230      2.2779      2.6708      3.0876      3.5174    
  3.9242      4.2561      4.4845      4.6057      4.6109      4.4857      4.2409      3.9129      3.5292      3.1041    
  2.6673      2.2632      1.9170      1.6272      1.3931      1.2230      1.1145      1.0552      1.0469      1.1037    
  1.0805      1.2156      1.4008      1.6414      1.9381      2.2762      2.6400      3.0210      3.4020      3.7441    
  4.0065      4.1685      4.2223      4.1608      3.9868      3.7236      3.4021      3.0428      2.6620      2.2848    
  1.9382      1.6378      1.3914      1.2057      1.0806      1.0059     0.97636     0.99915     0.97006      1.0663    
  1.2099      1.4024      1.6455      1.9316      2.2452      2.5732      2.9050      3.2218      3.4936      3.6906    
  3.7933      3.7917      3.6850      3.4853      3.2173      2.9085      2.5816      2.2543      1.9407      1.6530    
  1.4033      1.2040      1.0612     0.97057     0.92478     0.92318     0.89325     0.95570      1.0606      1.2084    
  1.4006      1.6357      1.9044      2.1908      2.4788      2.7546      3.0035      3.2059      3.3403      3.3904    
  3.3493      3.2200      3.0145      2.7537      2.4648      2.1737      1.8968      1.6408      1.4104      1.2138    
  1.0606     0.95462     0.89321     0.87286     0.84753     0.88322     0.95549      1.0646      1.2103      1.3931    
  1.6119      1.8582      2.1149      2.3624      2.5852      2.7720      2.9105      2.9872      2.9931      2.9264    
  2.7908      2.5946      2.3541      2.0933      1.8377      1.6036      1.3966      1.2175      1.0693     0.95684    
 0.88317     0.84742     0.94476     0.96429      1.0239      1.1246      1.2655      1.4449      1.6628      1.9181    
  2.2021      2.4959      2.7751      3.0174      3.2051      3.3240      3.3643      3.3229      3.2051      3.0204    
  2.7800      2.4995      2.2022      1.9156      1.6601      1.4437      1.2656      1.1251      1.0242     0.96439    
 0.96453     0.96446     0.99540      1.0590      1.1563      1.2855      1.4433      1.6276      1.8372      2.0662    
  2.2998      2.5161      2.6942      2.8188      2.8800      2.8731      2.8013      2.6757      2.5092      2.3111    
  2.0890      1.8566      1.6340      1.4389      1.2787      1.1525      1.0582     0.99555      1.0236      1.0127    
  1.0241      1.0576      1.1164      1.2036      1.3171      1.4504      1.5996      1.7632      1.9372      2.1106    
  2.2677      2.3925      2.4716      2.4958      2.4622      2.3769      2.2532      2.1063      1.9471      1.7800    
  1.6103      1.4490      1.3095      1.1993      1.1168      1.0584      1.1229      1.1084      1.1107      1.1244    