2H-MoS2                                 
   1.00000000000000     
     3.179268   -0.000000    0.000000
    -1.589634    2.753326    0.000000
     0.000000    0.000000   13.745283
   Mo   S 
     2     4
Direct
  0.666667  0.333333  0.250000
  0.333333  0.666667  0.750000
  0.333333  0.666667  0.136084
  0.666667  0.333333  0.636084
  0.333333  0.666667  0.363916
  0.666667  0.333333  0.863916
 
   28   28  128
 0.74551131420E+00 0.75709959141E+00 0.79281665986E+00 0.85351082285E+00 0.93774122882E+00
 0.10435803736E+01 0.11716283126E+01 0.13228785565E+01 0.14920550091E+01 0.16647798971E+01
 0.18232670152E+01 0.19545312622E+01 0.20524178438E+01 0.21135461956E+01 0.21345034106E+01
 0.21135590648E+01 0.20524388306E+01 0.19545603010E+01 0.18233143783E+01 0.16648596902E+01
 0.14921732441E+01 0.13230276335E+01 0.11717910959E+01 0.10437381260E+01 0.93787926951E+00
 0.85362000872E+00 0.79289194433E+00 0.75713803358E+00 0.75734567261E+00 0.75722187492E+00
 0.78069811280E+00 0.82959804469E+00 0.90473367888E+00 0.10035262181E+01 0.11217095647E+01
 0.12572300341E+01 0.14103884449E+01 0.15782558964E+01 0.17493586752E+01 0.19057668549E+01
 0.20311052402E+01 0.21158358682E+01 0.21558162677E+01 0.21495837200E+01 0.20994293357E+01
 0.20125838775E+01 0.18974450452E+01 0.17588778377E+01 0.16002983046E+01 0.14304914008E+01
 0.12648663313E+01 0.11180257240E+01 0.99664441684E+00 0.90057510133E+00 0.82859359955E+00
 0.78086023752E+00 0.79255569428E+00 0.78094449901E+00 0.79268498566E+00 0.82773438203E+00
 0.88935271681E+00 0.98014631393E+00 0.10966738905E+01 0.12308772185E+01 0.13768278438E+01
 0.15332087823E+01 0.16979764038E+01 0.18622798829E+01 0.20108937782E+01 0.21277784321E+01
 0.22006987639E+01 0.22225312244E+01 0.21916702562E+01 0.21132128058E+01 0.19986228456E+01
 0.18612555169E+01 0.17103865359E+01 0.15502637775E+01 0.13857834408E+01 0.12274072776E+01
 0.10880253013E+01 0.97533557768E+00 0.88962458661E+00 0.82880135250E+00 0.85184098679E+00
 0.82768814631E+00 0.82955352365E+00 0.85267801730E+00 0.89740897271E+00 0.97116754655E+00
 0.10779117731E+01 0.12117618655E+01 0.13629565573E+01 0.15241529123E+01 0.16892992149E+01
 0.18518789861E+01 0.20055170923E+01 0.21414712590E+01 0.22454495584E+01 0.23022727912E+01
 0.23042530229E+01 0.22518788430E+01 0.21497626229E+01 0.20083081875E+01 0.18458542057E+01
 0.16799500230E+01 0.15168332365E+01 0.13564607615E+01 0.12056386051E+01 0.10771627655E+01
 0.97711471355E+00 0.90256198093E+00 0.93787924330E+00 0.89827138298E+00 0.88976991278E+00
 0.90559924315E+00 0.93781089830E+00 0.99238736638E+00 0.10796007028E+01 0.11986973990E+01
 0.13431602090E+01 0.15097220757E+01 0.16905586484E+01 0.18681057308E+01 0.20291638596E+01
 0.21729876486E+01 0.22956008695E+01 0.23795162663E+01 0.24099315437E+01 0.23878058857E+01
 0.23170538145E+01 0.21951347232E+01 0.20292555117E+01 0.18460066316E+01 0.16695741591E+01
 0.15029480221E+01 0.13433158302E+01 0.12010496648E+01 0.10883615776E+01 0.10028047400E+01
 0.10518420346E+01 0.99577491102E+00 0.97216300219E+00 0.98113892019E+00 0.10069078255E+01
 0.10477089177E+01 0.11178143047E+01 0.12195910312E+01 0.13429350857E+01 0.14903643810E+01
 0.16708430832E+01 0.18695172267E+01 0.20549242108E+01 0.22150168277E+01 0.23551930346E+01
 0.24643699661E+01 0.25176619365E+01 0.25116187895E+01 0.24627936953E+01 0.23726448062E+01
 0.22292710663E+01 0.20444369171E+01 0.18533896379E+01 0.16750438408E+01 0.15046839685E+01
 0.13465775343E+01 0.12193032551E+01 0.11259220716E+01 0.11887215862E+01 0.11220829801E+01
 0.10795618451E+01 0.10762644891E+01 0.10966305382E+01 0.11259743523E+01 0.11801744191E+01
 0.12725470570E+01 0.13854815175E+01 0.15065485449E+01 0.16567622743E+01 0.18491332728E+01
 0.20536988678E+01 0.22365709889E+01 0.23981081755E+01 0.25394583321E+01 0.26296060649E+01
 0.26436555067E+01 0.26000735204E+01 0.25238622188E+01 0.24064454041E+01 0.22379444687E+01
 0.20453786173E+01 0.18614937576E+01 0.16865046232E+01 0.15150540034E+01 0.13685167005E+01
 0.12650741814E+01 0.13383976702E+01 0.12725601755E+01 0.12156821578E+01 0.11947801462E+01
 0.12078463332E+01 0.12269712822E+01 0.12572430343E+01 0.13306357937E+01 0.14429775090E+01
 0.15593764527E+01 0.16806871554E+01 0.18408672217E+01 0.20381290348E+01 0.22313302941E+01
 0.24040597146E+01 0.25683559761E+01 0.27048526824E+01 0.27656178043E+01 0.27421118861E+01
 0.26701143564E+01 0.25648952718E+01 0.24118864759E+01 0.22225746431E+01 0.20371712958E+01
 0.18677446304E+01 0.16970988716E+01 0.15348938548E+01 0.14153294318E+01 0.14921734199E+01
 0.14353009187E+01 0.13773358560E+01 0.13399469449E+01 0.13433425557E+01 0.13599702390E+01
 0.13686838301E+01 0.14027117380E+01 0.14921135689E+01 0.16093459120E+01 0.17230806777E+01
 0.18547339246E+01 0.20290612082E+01 0.22185698152E+01 0.23890897482E+01 0.25506428508E+01
 0.27102887836E+01 0.28236960607E+01 0.28481533747E+01 0.27998294351E+01 0.27103480400E+01
 0.25744981297E+01 0.23895147380E+01 0.21961942631E+01 0.20292557137E+01 0.18726061223E+01
 0.17107226101E+01 0.15751177710E+01 0.16463737172E+01 0.15970574414E+01 0.15518368770E+01
 0.15076186753E+01 0.14977970070E+01 0.15171541208E+01 0.15252232430E+01 0.15256732336E+01
 0.15659747278E+01 0.16555797518E+01 0.17586917661E+01 0.18692744915E+01 0.20174142064E+01
 0.21981732624E+01 0.23683755230E+01 0.25172569966E+01 0.26675413603E+01 0.28041510470E+01
 0.28748827207E+01 0.28656346997E+01 0.28063163568E+01 0.27039702114E+01 0.25423479806E+01
 0.23460545725E+01 0.21702807880E+01 0.20250151939E+01 0.18797413759E+01 0.17401839516E+01
 0.17980063849E+01 0.17496291238E+01 0.17230424760E+01 0.16876533269E+01 0.16654218444E+01
 0.16791494183E+01 0.16992206042E+01 0.16962701534E+01 0.16979447352E+01 0.17403025641E+01
 0.18106386633E+01 0.18893140064E+01 0.19983066307E+01 0.21551082338E+01 0.23255268427E+01
 0.24730853511E+01 0.26084208084E+01 0.27416163037E+01 0.28355140353E+01 0.28563966767E+01
 0.28228455570E+01 0.27574819937E+01 0.26423120041E+01 0.24708975329E+01 0.22917457948E+01
 0.21479836719E+01 0.20235945890E+01 0.18976526132E+01 0.19382502793E+01 0.18892756889E+01
 0.18786360500E+01 0.18664910176E+01 0.18455522656E+01 0.18452747028E+01 0.18656591552E+01
 0.18727916969E+01 0.18636363126E+01 0.18716407024E+01 0.19057281813E+01 0.19463917463E+01
 0.20024225105E+01 0.21066101254E+01 0.22525495372E+01 0.23972035694E+01 0.25256776713E+01
 0.26517292168E+01 0.27579262545E+01 0.28019748301E+01 0.27824131444E+01 0.27339381662E+01
 0.26599657395E+01 0.25360328062E+01 0.23778638262E+01 0.22373480534E+01 0.21295229414E+01
 0.20291015467E+01 0.20524387116E+01 0.20105318889E+01 0.20112409407E+01 0.20277030101E+01
 0.20292396572E+01 0.20265737919E+01 0.20369476468E+01 0.20433659015E+01 0.20293365749E+01
 0.20157987214E+01 0.20238218333E+01 0.20392121697E+01 0.20524297876E+01 0.20927967396E+01
 0.21829675719E+01 0.22984866782E+01 0.24097244393E+01 0.25216183388E+01 0.26337289209E+01
 0.27063966875E+01 0.27102884888E+01 0.26691132916E+01 0.26126756935E+01 0.25299273821E+01
 0.24099314509E+01 0.22856626906E+01 0.21920066252E+01 0.21195910509E+01 0.21264524030E+01
 0.21031375985E+01 0.21148719469E+01 0.21561540414E+01 0.21922946099E+01 0.22103118740E+01
 0.22238093677E+01 0.22290495618E+01 0.22067566010E+01 0.21671042496E+01 0.21425114073E+01
 0.21360361724E+01 0.21261747428E+01 0.21199986893E+01 0.21493969694E+01 0.22159339100E+01
 0.22910106622E+01 0.23680000794E+01 0.24601920839E+01 0.25486367036E+01 0.25885090837E+01
 0.25708321242E+01 0.25265647828E+01 0.24691594394E+01 0.23860416423E+01 0.22876000907E+01
 0.22096377723E+01 0.21622695409E+01 0.21519308608E+01 0.21559939395E+01 0.21828983589E+01
 0.22436585937E+01 0.23130596598E+01 0.23633685154E+01 0.23977143493E+01 0.24195746562E+01
 0.24067321426E+01 0.23501863942E+01 0.22831358977E+01 0.22365609309E+01 0.22006289171E+01
 0.21624084209E+01 0.21432137154E+01 0.21622904969E+01 0.22003949031E+01 0.22362393263E+01
 0.22827913991E+01 0.23498897393E+01 0.24065173742E+01 0.24194295621E+01 0.23976112157E+01
 0.23632971324E+01 0.23130282935E+01 0.22436703472E+01 0.21829350637E+01 0.21560240959E+01
 0.21264398501E+01 0.21622223242E+01 0.22095729616E+01 0.22875557769E+01 0.23860519689E+01
 0.24692282620E+01 0.25266673383E+01 0.25709499475E+01 0.25886613333E+01 0.25488661341E+01
 0.24605139280E+01 0.23683695901E+01 0.22913467663E+01 0.22161720748E+01 0.21495149556E+01
 0.21199988484E+01 0.21260597483E+01 0.21358134563E+01 0.21422145083E+01 0.21667937146E+01
 0.22064905751E+01 0.22288539870E+01 0.22236775456E+01 0.22102275135E+01 0.21922492653E+01
 0.21561438004E+01 0.21148848916E+01 0.21031502064E+01 0.20524179628E+01 0.21195350394E+01
 0.21919187958E+01 0.22855766797E+01 0.24098962387E+01 0.25299711188E+01 0.26127803204E+01
 0.26692338985E+01 0.27104058533E+01 0.27065458967E+01 0.26339655007E+01 0.25219541956E+01
 0.24101031980E+01 0.22988226241E+01 0.21832013479E+01 0.20929118922E+01 0.20524300256E+01
 0.20391020445E+01 0.20236145052E+01 0.20155306670E+01 0.20290611515E+01 0.20431285105E+01
 0.20367682586E+01 0.20264507899E+01 0.20291640048E+01 0.20276656266E+01 0.20112299093E+01
 0.20105280889E+01 0.19382212635E+01 0.20290464958E+01 0.21294292862E+01 0.22372311456E+01
 0.23777703845E+01 0.25360148262E+01 0.26600377563E+01 0.27340611637E+01 0.27825326546E+01
 0.28020809650E+01 0.27580692032E+01 0.26519676236E+01 0.25260137093E+01 0.23975731132E+01
 0.22528707404E+01 0.21068324902E+01 0.20025328168E+01 0.19463919385E+01 0.19056240761E+01
 0.18714505163E+01 0.18633968205E+01 0.18725470520E+01 0.18654430604E+01 0.18451030178E+01
 0.18454277699E+01 0.18664099679E+01 0.18785897677E+01 0.18892489936E+01 0.17979589889E+01
 0.18975980598E+01 0.20235105199E+01 0.21478630518E+01 0.22916130224E+01 0.24708055413E+01
 0.26423084669E+01 0.27575676046E+01 0.28229701077E+01 0.28565079627E+01 0.28356134742E+01
 0.27417591335E+01 0.26086575933E+01 0.24734076534E+01 0.23258713742E+01 0.21554046746E+01
 0.19985136879E+01 0.18894182306E+01 0.18106386962E+01 0.17402057222E+01 0.16977728271E+01
 0.16960572630E+01 0.16990007909E+01 0.16789469209E+01 0.16652505958E+01 0.16875202640E+01
 0.17229481801E+01 0.17495662433E+01 0.16462937854E+01 0.17401168152E+01 0.18796658075E+01
 0.20249114779E+01 0.21701459693E+01 0.23459168334E+01 0.25422599586E+01 0.27039735498E+01
 0.28064046855E+01 0.28657572844E+01 0.28749940034E+01 0.28042568123E+01 0.26676902726E+01
 0.25174867636E+01 0.23686726951E+01 0.21984837791E+01 0.20176819639E+01 0.18694646629E+01
 0.17587886048E+01 0.16555795745E+01 0.15658869057E+01 0.15255207751E+01 0.15250348677E+01
 0.15169544373E+01 0.14976039262E+01 0.15074460832E+01 0.15516950079E+01 0.15969496050E+01
 0.14920548333E+01 0.15750231018E+01 0.17106395503E+01 0.18725168346E+01 0.20291429342E+01
 0.21960557627E+01 0.23893776693E+01 0.25744125834E+01 0.27103528485E+01 0.27999178969E+01
 0.28482783098E+01 0.28238155535E+01 0.27104055585E+01 0.25507947785E+01 0.23893048681E+01
 0.22188361630E+01 0.20293365181E+01 0.18549734340E+01 0.17232529044E+01 0.16094336010E+01
 0.14921132173E+01 0.14026345721E+01 0.13685512030E+01 0.13598040774E+01 0.13431600594E+01
 0.13397626790E+01 0.13771642696E+01 0.14351537061E+01 0.13382483838E+01 0.14152029999E+01
 0.15347879313E+01 0.16970053983E+01 0.18676492024E+01 0.20370569940E+01 0.22224370520E+01
 0.24117503751E+01 0.25648095105E+01 0.26701174561E+01 0.27421978482E+01 0.27657414101E+01
 0.27049732382E+01 0.25684732243E+01 0.24042046395E+01 0.22315261259E+01 0.20383663746E+01
 0.18411116427E+01 0.16809003969E+01 0.15595295047E+01 0.14430544600E+01 0.13306353777E+01
 0.12571770185E+01 0.12268570686E+01 0.12076992642E+01 0.11946126008E+01 0.12155072772E+01
 0.12723924191E+01 0.11885591457E+01 0.12649249563E+01 0.13683853594E+01 0.15149412005E+01
 0.16864061932E+01 0.18613968885E+01 0.20452648394E+01 0.22378070905E+01 0.24063083267E+01
 0.25237736358E+01 0.26000696075E+01 0.26437279687E+01 0.26297112725E+01 0.25395607817E+01
 0.23982109663E+01 0.22367029170E+01 0.20538783609E+01 0.18493489223E+01 0.16569817776E+01
 0.15067374811E+01 0.13856148391E+01 0.12726128599E+01 0.11801740762E+01 0.11259184244E+01
 0.10965315098E+01 0.10761325400E+01 0.10794068073E+01 0.11219174148E+01 0.10516848320E+01
 0.11257651693E+01 0.12191554048E+01 0.13464440885E+01 0.15045682965E+01 0.16749440175E+01
 0.18532926412E+01 0.20443228697E+01 0.22291331214E+01 0.23725070514E+01 0.24627010120E+01
 0.25116004556E+01 0.25177060648E+01 0.24644391095E+01 0.23552642463E+01 0.22151011856E+01
 0.20550476044E+01 0.18696888812E+01 0.16710448890E+01 0.14905637255E+01 0.13431018027E+01
 0.12197058225E+01 0.11178701051E+01 0.10477087560E+01 0.10068597870E+01 0.98105093544E+00
 0.97204196948E+00 0.99562970879E+00 0.93774125504E+00 0.10026541389E+01 0.10882091011E+01
 0.12009032530E+01 0.13431820591E+01 0.15028323452E+01 0.16694753338E+01 0.18459108680E+01
 0.20291431362E+01 0.21950005881E+01 0.23169210225E+01 0.23877118762E+01 0.24098961460E+01
 0.23795268215E+01 0.22956321834E+01 0.21730327646E+01 0.20292398024E+01 0.18682307943E+01
 0.16907298117E+01 0.15099144729E+01 0.13433424062E+01 0.11988448036E+01 0.10797000217E+01
 0.99243540986E+00 0.93781095073E+00 0.90555650174E+00 0.88968894064E+00 0.89815753276E+00
 0.85173138389E+00 0.90242853690E+00 0.97696782194E+00 0.10770119660E+01 0.12054923211E+01
 0.13563276892E+01 0.15167204283E+01 0.16798559219E+01 0.18457644954E+01 0.20082048606E+01
 0.21496425617E+01 0.22517619155E+01 0.23041667532E+01 0.23022285300E+01 0.22454378434E+01
 0.21414811291E+01 0.20055542169E+01 0.18519604398E+01 0.16894328368E+01 0.15243254700E+01
 0.13631404005E+01 0.12119292065E+01 0.10780437170E+01 0.97125548122E+00 0.89745184200E+00
 0.85267822905E+00 0.82951370706E+00 0.82761095334E+00 0.79248015611E+00 0.82869377241E+00
 0.88949270531E+00 0.97518849690E+00 0.10878726236E+01 0.12272597493E+01 0.13856526963E+01
 0.15501578725E+01 0.17103028707E+01 0.18611795818E+01 0.19985389973E+01 0.21131194014E+01
 0.21915824110E+01 0.22224665021E+01 0.22006623128E+01 0.21277653990E+01 0.20109043179E+01
 0.18623259144E+01 0.16980709863E+01 0.15333510180E+01 0.13769995280E+01 0.12310520806E+01
 0.10968288391E+01 0.98026702469E+00 0.88943338282E+00 0.82777438779E+00 0.79268523936E+00
 0.78090586575E+00 0.75730729461E+00 0.78078521511E+00 0.82848618313E+00 0.90044161337E+00
 0.99649333505E+00 0.11178684922E+01 0.12647174642E+01 0.14303655528E+01 0.16002037053E+01
 0.17588103560E+01 0.18973902856E+01 0.20125288023E+01 0.20993732302E+01 0.21495364946E+01
 0.21557864255E+01 0.21158235872E+01 0.20311089463E+01 0.19057931902E+01 0.17494213496E+01
 0.15783637232E+01 0.14105357273E+01 0.12573980387E+01 0.11218754880E+01 0.10036714264E+01
 0.90484704837E+00 0.82967485809E+00 0.78073690973E+00 0.75722204274E+00 0.76689623290E+00
 0.77933942868E+00 0.81762630560E+00 0.88262583823E+00 0.97298002468E+00 0.10868079452E+01
 0.12245196879E+01 0.13866486431E+01 0.15674367314E+01 0.17521937923E+01 0.19227671480E+01
 0.20653298185E+01 0.21723830866E+01 0.22392551026E+01 0.22619320494E+01 0.22388865903E+01
 0.21724016585E+01 0.20663331263E+01 0.19244064654E+01 0.17534277420E+01 0.15675550945E+01
 0.13859079378E+01 0.12237395618E+01 0.10865230731E+01 0.97312099270E+00 0.88286748883E+00
 0.81778138766E+00 0.77939990022E+00 0.77958487369E+00 0.77947686431E+00 0.80218634994E+00
 0.84945164657E+00 0.92210660113E+00 0.10177892487E+01 0.11325482871E+01 0.12645096590E+01
 0.14139088253E+01 0.15777242521E+01 0.17447181319E+01 0.18975565312E+01 0.20203850435E+01
 0.21036812400E+01 0.21429361208E+01 0.21364946127E+01 0.20869275662E+01 0.20018764296E+01
 0.18897252578E+01 0.17548088562E+01 0.15999522504E+01 0.14337371557E+01 0.12717236718E+01
 0.11286280519E+01 0.10109301931E+01 0.91807872607E+00 0.84852529041E+00 0.80234518911E+00
 0.81736403090E+00 0.80742720480E+00 0.81761433711E+00 0.84773774605E+00 0.90100863796E+00
 0.98014672637E+00 0.10820475954E+01 0.11993445274E+01 0.13270004360E+01 0.14643595431E+01
 0.16098014582E+01 0.17552946266E+01 0.18872042080E+01 0.19912658173E+01 0.20563278534E+01
 0.20755290212E+01 0.20472118892E+01 0.19763891066E+01 0.18742042523E+01 0.17532011220E+01
 0.16213450660E+01 0.14813004895E+01 0.13365207895E+01 0.11965423826E+01 0.10737853376E+01
 0.97549171267E+00 0.90132383123E+00 0.84872969662E+00 0.88095453936E+00 0.86258080404E+00
 0.86459985675E+00 0.88200623721E+00 0.91510781123E+00 0.97154961602E+00 0.10554269490E+01
 0.11612353525E+01 0.12805168923E+01 0.14078411893E+01 0.15386503070E+01 0.16674884551E+01
 0.17896689330E+01 0.18990973545E+01 0.19841034477E+01 0.20311866831E+01 0.20333460661E+01
 0.19908884403E+01 0.19073514175E+01 0.17915203335E+01 0.16600722271E+01 0.15287037239E+01
 0.14012339436E+01 0.12751357754E+01 0.11555960251E+01 0.10546030406E+01 0.97742409489E+00
 0.92021550513E+00 0.97312096587E+00 0.94580069257E+00 0.94163568806E+00 0.95346823709E+00
 0.97304767525E+00 0.10068990048E+01 0.10658621708E+01 0.11491568731E+01 0.12508479960E+01
 0.13699145770E+01 0.15013964201E+01 0.16298860992E+01 0.17442238684E+01 0.18466856876E+01
 0.19367902453E+01 0.19998711820E+01 0.20230975178E+01 0.20084587359E+01 0.19590647179E+01
 0.18696368003E+01 0.17443188204E+01 0.16074184029E+01 0.14807143533E+01 0.13638784278E+01
 0.12510057540E+01 0.11507446075E+01 0.10742027212E+01 0.10175095867E+01 0.10950830928E+01
 0.10602590412E+01 0.10475569693E+01 0.10569322517E+01 0.10716604666E+01 0.10902489759E+01
 0.11284110957E+01 0.11891475192E+01 0.12622505850E+01 0.13516411023E+01 0.14695663353E+01
 0.16044170474E+01 0.17274629344E+01 0.18303053209E+01 0.19228638041E+01 0.19977146237E+01
 0.20324789831E+01 0.20259921670E+01 0.19958712988E+01 0.19413722296E+01 0.18459809761E+01
 0.17174647946E+01 0.15883065294E+01 0.14740079595E+01 0.13656740805E+01 0.12646238682E+01
 0.11879629302E+01 0.11370031801E+01 0.12416356063E+01 0.12077907473E+01 0.11850473095E+01
 0.11890468358E+01 0.12030384021E+01 0.12114452013E+01 0.12316496765E+01 0.12789646240E+01
 0.13361685730E+01 0.13914222986E+01 0.14686791742E+01 0.15847723276E+01 0.17127352111E+01
 0.18224257258E+01 0.19199636998E+01 0.20119008346E+01 0.20702069033E+01 0.20721914735E+01
 0.20389007322E+01 0.19955237896E+01 0.19292603401E+01 0.18244393283E+01 0.17039355231E+01
 0.15968860847E+01 0.14986103710E+01 0.13993014586E+01 0.13182073882E+01 0.12719281808E+01
 0.14021865416E+01 0.13832779066E+01 0.13575124464E+01 0.13528923099E+01 0.13669724892E+01
 0.13699151958E+01 0.13670659072E+01 0.13930876298E+01 0.14454873819E+01 0.14898428535E+01
 0.15295064112E+01 0.16029678400E+01 0.17119061471E+01 0.18180160486E+01 0.19104720002E+01
 0.20088380633E+01 0.20987819338E+01 0.21344129246E+01 0.21095127857E+01 0.20620422322E+01
 0.20053137746E+01 0.19187447366E+01 0.18081802600E+01 0.17097853714E+01 0.16304613738E+01
 0.15468950544E+01 0.14650413184E+01 0.14176826042E+01 0.15675552824E+01 0.15737340109E+01
 0.15610046336E+01 0.15510622825E+01 0.15647953112E+01 0.15728847855E+01 0.15528517845E+01
 0.15400680623E+01 0.15674841328E+01 0.16084304983E+01 0.16332834837E+01 0.16685282898E+01
 0.17441169086E+01 0.18352307239E+01 0.19114106126E+01 0.19904077567E+01 0.20871293420E+01
 0.21609569859E+01 0.21709092277E+01 0.21356666949E+01 0.20871925745E+01 0.20155255915E+01
 0.19113641078E+01 0.18109305357E+01 0.17443190350E+01 0.16884755973E+01 0.16217622350E+01
 0.15732768562E+01 0.17337671386E+01 0.17643882457E+01 0.17810528609E+01 0.17782440198E+01
 0.17900416978E+01 0.18105245677E+01 0.17970739409E+01 0.17541543542E+01 0.17328602474E+01
 0.17446835803E+01 0.17546113050E+01 0.17607188850E+01 0.18000236944E+01 0.18722666724E+01
 0.19368583124E+01 0.19887061003E+01 0.20593709219E+01 0.21402270185E+01 0.21816550207E+01
 0.21718308928E+01 0.21424965123E+01 0.20979426533E+01 0.20151648575E+01 0.19131512318E+01
 0.18432118299E+01 0.18092294241E+01 0.17728422927E+01 0.17349629865E+01 0.18974787252E+01
 0.19454081503E+01 0.19985960212E+01 0.20214027980E+01 0.20347408957E+01 0.20613819763E+01
 0.20696910677E+01 0.20295094638E+01 0.19718278596E+01 0.19366248797E+01 0.19125001896E+01
 0.18820684102E+01 0.18738351598E+01 0.19124156659E+01 0.19675345403E+01 0.20065952488E+01
 0.20477219041E+01 0.21089504054E+01 0.21574579160E+01 0.21620136523E+01 0.21439816753E+01
 0.21257721545E+01 0.20837245169E+01 0.20044505535E+01 0.19321369509E+01 0.19054192331E+01
 0.19007146357E+01 0.18899294662E+01 0.20490301218E+01 0.21114352552E+01 0.21979853519E+01
 0.22623455017E+01 0.22935745119E+01 0.23204895592E+01 0.23416555930E+01 0.23211914392E+01
 0.22576712489E+01 0.21894060102E+01 0.21288868507E+01 0.20586484704E+01 0.19922145541E+01
 0.19699635705E+01 0.19916195291E+01 0.20182550971E+01 0.20408138095E+01 0.20807634539E+01
 0.21262726449E+01 0.21379077576E+01 0.21171635606E+01 0.21008317644E+01 0.20895140137E+01
 0.20518939039E+01 0.19979200984E+01 0.19754986106E+01 0.19937115439E+01 0.20194030384E+01
 0.21724015323E+01 0.22552034826E+01 0.23688500849E+01 0.24797267990E+01 0.25513819747E+01
 0.25921434011E+01 0.26180947267E+01 0.26102045388E+01 0.25514700648E+01 0.24662519408E+01
 0.23806721034E+01 0.22844540781E+01 0.21723762132E+01 0.20804724672E+01 0.20385232266E+01
 0.20274332203E+01 0.20228756684E+01 0.20366928030E+01 0.20746497704E+01 0.21004555363E+01
 0.20871290280E+01 0.20610793189E+01 0.20523109850E+01 0.20453429745E+01 0.20230974184E+01
 0.20138350045E+01 0.20476293722E+01 0.21081666038E+01 0.22521722693E+01 0.23643724791E+01
 0.25025754886E+01 0.26543603816E+01 0.27782034986E+01 0.28566986386E+01 0.29015489681E+01
 0.29076264597E+01 0.28544991395E+01 0.27533489689E+01 0.26403659416E+01 0.25236453105E+01
 0.23872857628E+01 0.22451065620E+01 0.21362928787E+01 0.20687091643E+01 0.20192948883E+01
 0.19876276561E+01 0.19932903348E+01 0.20216528022E+01 0.20301838565E+01 0.20117917825E+01
 0.19985956199E+01 0.20024403278E+01 0.20063924941E+01 0.20159490719E+01 0.20622239094E+01
 0.21495954449E+01 0.22793765875E+01 0.24259190339E+01 0.25900319298E+01 0.27748638247E+01
 0.29478154922E+01 0.30753861908E+01 0.31571958341E+01 0.31951776203E+01 0.31666917873E+01
 0.30629836118E+01 0.29186460085E+01 0.27681648420E+01 0.26077212998E+01 0.24321204719E+01
 0.22706338149E+01 0.21495980653E+01 0.20559676385E+01 0.19742970170E+01 0.19231622621E+01
 0.19172172166E+01 0.19288553384E+01 0.19267310965E+01 0.19204152063E+01 0.19314433313E+01
 0.19542347566E+01 0.19821709907E+01 0.20384659586E+01 0.21431406018E+01 0.22517818545E+01
 0.24319517879E+01 0.26234385286E+01 0.28360782683E+01 0.30513327262E+01 0.32270583051E+01
 0.33481043250E+01 0.34240650968E+01 0.34410957508E+01 0.33693568955E+01 0.32184948859E+01
 0.30343127787E+01 0.28399078947E+01 0.26298254064E+01 0.24196132276E+01 0.22459046013E+01
 0.21144232302E+01 0.19997929722E+01 0.18999081490E+01 0.18401180099E+01 0.18212670550E+01
 0.18142642901E+01 0.18099185094E+01 0.18263776561E+01 0.18659768065E+01 0.19135369264E+01
 0.19787584982E+01 0.20913784471E+01 0.21723831987E+01 0.23804578224E+01 0.25989812022E+01
 0.28342725930E+01 0.30855307073E+01 0.33107264271E+01 0.34720044478E+01 0.35760939006E+01
 0.36320683989E+01 0.36113863503E+01 0.34919393831E+01 0.33030175829E+01 0.30857255953E+01
 0.28467367825E+01 0.25902766497E+01 0.23546444440E+01 0.21723764515E+01 0.20288731984E+01
 0.19007627879E+01 0.18003286581E+01 0.17441168329E+01 0.17149831830E+01 0.16948390545E+01
 0.16995472750E+01 0.17442240073E+01 0.18109375223E+01 0.18876214527E+01 0.20008444303E+01
 0.20499796134E+01 0.22737707290E+01 0.25168488699E+01 0.27687745072E+01 0.30433306191E+01
 0.33163402726E+01 0.35308912012E+01 0.36672592555E+01 0.37464548067E+01 0.37648590451E+01
 0.36898578867E+01 0.35233062315E+01 0.33070230175E+01 0.30621509599E+01 0.27834955395E+01
 0.24950090899E+01 0.22476798620E+01 0.20566572500E+01 0.18973993803E+01 0.17650293663E+01
 0.16796685055E+01 0.16345577797E+01 0.16001029971E+01 0.15805065310E+01 0.16077715271E+01
 0.16808870643E+01 0.17706253989E+01 0.18820211429E+01 0.18990266975E+01 0.21202674557E+01
 0.23804143107E+01 0.26460097947E+01 0.29271417543E+01 0.32283727046E+01 0.34998240158E+01
 0.36894218102E+01 0.38000807003E+01 0.38479811085E+01 0.38119381219E+01 0.36745269410E+01
 0.34681990446E+01 0.32310023784E+01 0.29598309970E+01 0.26536708799E+01 0.23569315267E+01
 0.21115645868E+01 0.19093129000E+01 0.17349699609E+01 0.16095432210E+01 0.15457657557E+01
 0.15103156692E+01 0.14781456143E+01 0.14776559428E+01 0.15367180982E+01 0.16331245520E+01
 0.17449223647E+01 0.17348438161E+01 0.19364496672E+01 0.21979476810E+01 0.24759856388E+01
 0.27568064515E+01 0.30589516602E+01 0.33629513085E+01 0.36089078578E+01 0.37689528382E+01
 0.38566731378E+01 0.38653503440E+01 0.37668972191E+01 0.35746807343E+01 0.33394805402E+01
 0.30803530955E+01 0.27840233634E+01 0.24703259756E+01 0.21893590567E+01 0.19539940909E+01
 0.17424112730E+01 0.15645901013E+01 0.14562147398E+01 0.14087918104E+01 0.13775897927E+01
 0.13593289678E+01 0.13924044060E+01 0.14817289521E+01 0.15952978144E+01 0.15674365673E+01
 0.17424940236E+01 0.19852999820E+01 0.22669894815E+01 0.25512825900E+01 0.28438284728E+01
 0.31498011225E+01 0.34274756275E+01 0.36320208396E+01 0.37627949660E+01 0.38238213150E+01
 0.37853128601E+01 0.36320681227E+01 0.34050611505E+01 0.31492474133E+01 0.28647213088E+01
 0.25514700268E+01 0.22514664051E+01 0.19987557638E+01 0.17760286992E+01 0.15674837809E+01
 0.14057009297E+01 0.13182726926E+01 0.12771984137E+01 0.12508478587E+01 0.12589219934E+01
 0.13274179569E+01 0.14372317002E+01 0.14011424590E+01 0.15533168042E+01 0.17638522442E+01
 0.20301747768E+01 0.23153459898E+01 0.26031336919E+01 0.29008129623E+01 0.31877879789E+01
 0.34184615950E+01 0.35770252697E+01 0.36749087350E+01 0.36971036696E+01 0.36099433563E+01
 0.34220588638E+01 0.31806642968E+01 0.29088346533E+01 0.26032743437E+01 0.22893558046E+01
 0.20149964129E+01 0.17883092497E+01 0.15810522990E+01 0.13948331554E+01 0.12644512725E+01
 0.11950814170E+01 0.11568863220E+01 0.11447895476E+01 0.11848312788E+01 0.12788186849E+01
 0.12405211010E+01 0.13751989621E+01 0.15525982986E+01 0.17862940176E+01 0.20560718962E+01
 0.23366621990E+01 0.26259495898E+01 0.29153263017E+01 0.31658023715E+01 0.33455818089E+01
 0.34600821522E+01 0.35155605197E+01 0.34880059730E+01 0.33606115534E+01 0.31586389590E+01
 0.29148541705E+01 0.26340960136E+01 0.23243330650E+01 0.20267619144E+01 0.17774328609E+01
 0.15688533854E+01 0.13833249876E+01 0.12335443079E+01 0.11369906388E+01 0.10818635571E+01
 0.10534944761E+01 0.10656288255E+01 0.11327527840E+01 0.10944737678E+01 0.12112382579E+01
 0.13616609805E+01 0.15586915283E+01 0.17975691119E+01 0.20574108410E+01 0.23290158999E+01
 0.26100008116E+01 0.28750021437E+01 0.30839671287E+01 0.32207261415E+01 0.32933629782E+01
 0.32990366099E+01 0.32221974184E+01 0.30677398758E+01 0.28623575646E+01 0.26212332347E+01
 0.23454580741E+01 0.20537353887E+01 0.17832367919E+01 0.15540601873E+01 0.13613025506E+01
 0.12037989143E+01 0.10911821979E+01 0.10213291944E+01 0.98112830126E+00 0.97250033660E+00
 0.10103473425E+01 0.97298005033E+00 0.10671712637E+01 0.11941010561E+01 0.13595193712E+01
 0.15646436954E+01 0.17958893805E+01 0.20400704574E+01 0.22948660827E+01 0.25512827798E+01
 0.27801425189E+01 0.29508821792E+01 0.30526947331E+01 0.30855306209E+01 0.30447920655E+01
 0.29303709285E+01 0.27589317284E+01 0.25513821265E+01 0.23168636076E+01 0.20616686102E+01
 0.18037162100E+01 0.15647951490E+01 0.13566799765E+01 0.11851423319E+01 0.10571143558E+01
 0.97304772774E+00 0.92300685185E+00 0.90142596908E+00 0.91593553653E+00 0.88097623339E+00
 0.95009594727E+00 0.10525296007E+01 0.11897274596E+01 0.13638558575E+01 0.15679680271E+01
 0.17879240990E+01 0.20140311583E+01 0.22418320283E+01 0.24602466692E+01 0.26476401403E+01
 0.27824753029E+01 0.28519786279E+01 0.28502156538E+01 0.27764939220E+01 0.26394249568E+01
 0.24566531831E+01 0.22466534856E+01 0.20230331679E+01 0.17962552968E+01 0.15759030984E+01
 0.13707814540E+01 0.11906769051E+01 0.10467225310E+01 0.94505426523E+00 0.88170405080E+00
 0.84936791815E+00 0.84761705392E+00 0.81736984899E+00 0.86366767823E+00 0.94140250184E+00
 0.10508994275E+01 0.11938446252E+01 0.13693073714E+01 0.15688561684E+01 0.17783654917E+01
 0.19850433613E+01 0.21805782731E+01 0.23569303168E+01 0.25015180965E+01 0.25987248576E+01
 0.26359458489E+01 0.26077329245E+01 0.25158805993E+01 0.23685935021E+01 0.21806629157E+01
 0.19719247377E+01 0.17614116891E+01 0.15607483648E+01 0.13737716186E+01 0.12031998106E+01
 0.10561364206E+01 0.94137920462E+00 0.86266747564E+00 0.81745343695E+00 0.80239075504E+00
 0.77957010589E+00 0.80726616700E+00 0.86345643266E+00 0.94825451941E+00 0.10614158497E+01
 0.12038031869E+01 0.13749878083E+01 0.15676189949E+01 0.17662325492E+01 0.19540300647E+01
 0.21200560378E+01 0.22582285054E+01 0.23613328598E+01 0.24196558302E+01 0.24257078642E+01
 0.23774664762E+01 0.22768581709E+01 0.21289686992E+01 0.19451967080E+01 0.17445355408E+01
 0.15474742673E+01 0.13672301904E+01 0.12075796056E+01 0.10686273341E+01 0.95279573678E+00
 0.86472441831E+00 0.80721596034E+00 0.77947002910E+00 0.83221479737E+00 0.84727547060E+00
 0.89342793758E+00 0.97158385180E+00 0.10804953184E+01 0.12183345849E+01 0.13852434552E+01
 0.15810073590E+01 0.17987200123E+01 0.20221930035E+01 0.22311777235E+01 0.24088736365E+01
 0.25441931362E+01 0.26291854240E+01 0.26578685636E+01 0.26284340760E+01 0.25442123247E+01
 0.24108620370E+01 0.22344232023E+01 0.20245909311E+01 0.17988396400E+01 0.15793705074E+01
 0.13835112466E+01 0.12176003821E+01 0.10806376347E+01 0.97195991995E+00 0.89366486102E+00
 0.84735866957E+00 0.84752138649E+00 0.84743010951E+00 0.87265616102E+00 0.92486311941E+00
 0.10049265491E+01 0.11107132631E+01 0.12385490416E+01 0.13865591776E+01 0.15544347742E+01
 0.17381194056E+01 0.19251476921E+01 0.20969304035E+01 0.22361891773E+01 0.23317070729E+01
 0.23773752633E+01 0.23707121537E+01 0.23145743947E+01 0.22176601715E+01 0.20895788150E+01
 0.19358340368E+01 0.17605796757E+01 0.15740280994E+01 0.13933623502E+01 0.12343802213E+01
 0.11038609867E+01 0.10010219951E+01 0.92401353522E+00 0.87281057329E+00 0.89316434849E+00