   6   6   0   0
  0.2005336E+02  0.3179268E-09  0.3179267E-09  0.1374528E-08  0.5000000E-15
  1.000000000000000E-004
  CAR 
 2H-MoS2                                 
     55.50841880    -60.76698423 3000      5.95888339      1.00000000
    -60.767  0.0000E+00  0.0000E+00
    -60.728  0.0000E+00  0.0000E+00
    -60.689  0.0000E+00  0.0000E+00
    -60.651  0.0000E+00  0.0000E+00
    -60.612  0.0000E+00  0.0000E+00
    -60.573  0.0000E+00  0.0000E+00
    -60.534  0.0000E+00  0.0000E+00
    -60.496  0.0000E+00  0.0000E+00
    -60.457  0.0000E+00  0.0000E+00
    -60.418  0.0000E+00  0.0000E+00
    -60.379  0.0000E+00  0.0000E+00
    -60.340  0.0000E+00  0.0000E+00
    -60.302  0.0000E+00  0.0000E+00
    -60.263  0.0000E+00  0.0000E+00
    -60.224  0.0000E+00  0.0000E+00
    -60.185  0.0000E+00  0.0000E+00
    -60.147  0.0000E+00  0.0000E+00
    -60.108  0.0000E+00  0.0000E+00
    -60.069  0.0000E+00  0.0000E+00
    -60.030  0.0000E+00  0.0000E+00
    -59.992  0.0000E+00  0.0000E+00
    -59.953  0.0000E+00  0.0000E+00
    -59.914  0.0000E+00  0.0000E+00
    -59.875  0.0000E+00  0.0000E+00
    -59.836  0.0000E+00  0.0000E+00
    -59.798  0.0000E+00  0.0000E+00
    -59.759  0.0000E+00  0.0000E+00
    -59.720  0.0000E+00  0.0000E+00
    -59.681  0.0000E+00  0.0000E+00
    -59.643  0.0000E+00  0.0000E+00
    -59.604  0.0000E+00  0.0000E+00
    -59.565  0.0000E+00  0.0000E+00
    -59.526  0.0000E+00  0.0000E+00
    -59.488  0.0000E+00  0.0000E+00
    -59.449  0.0000E+00  0.0000E+00
    -59.410  0.0000E+00  0.0000E+00
    -59.371  0.0000E+00  0.0000E+00
    -59.332  0.0000E+00  0.0000E+00
    -59.294  0.0000E+00  0.0000E+00
    -59.255  0.0000E+00  0.0000E+00
    -59.216  0.0000E+00  0.0000E+00
    -59.177  0.0000E+00  0.0000E+00
    -59.139  0.0000E+00  0.0000E+00
    -59.100  0.0000E+00  0.0000E+00
    -59.061  0.0000E+00  0.0000E+00
    -59.022  0.0000E+00  0.0000E+00
    -58.984  0.0000E+00  0.0000E+00
    -58.945  0.0000E+00  0.0000E+00
    -58.906  0.0000E+00  0.0000E+00
    -58.867  0.0000E+00  0.0000E+00
    -58.828  0.0000E+00  0.0000E+00
    -58.790  0.0000E+00  0.0000E+00
    -58.751  0.0000E+00  0.0000E+00
    -58.712  0.0000E+00  0.0000E+00
    -58.673  0.0000E+00  0.0000E+00
    -58.635  0.0000E+00  0.0000E+00
    -58.596  0.0000E+00  0.0000E+00
    -58.557  0.0000E+00  0.0000E+00
    -58.518  0.0000E+00  0.0000E+00
    -58.479  0.0000E+00  0.0000E+00
    -58.441  0.0000E+00  0.0000E+00
    -58.402  0.0000E+00  0.0000E+00
    -58.363  0.0000E+00  0.0000E+00
    -58.324  0.0000E+00  0.0000E+00
    -58.286  0.0000E+00  0.0000E+00
    -58.247  0.0000E+00  0.0000E+00
    -58.208  0.0000E+00  0.0000E+00
    -58.169  0.0000E+00  0.0000E+00
    -58.131  0.0000E+00  0.0000E+00
    -58.092  0.0000E+00  0.0000E+00
    -58.053  0.0000E+00  0.0000E+00
    -58.014  0.0000E+00  0.0000E+00
    -57.975  0.0000E+00  0.0000E+00
    -57.937  0.0000E+00  0.0000E+00
    -57.898  0.0000E+00  0.0000E+00
    -57.859  0.0000E+00  0.0000E+00
    -57.820  0.0000E+00  0.0000E+00
    -57.782  0.0000E+00  0.0000E+00
    -57.743  0.0000E+00  0.0000E+00
    -57.704  0.0000E+00  0.0000E+00
    -57.665  0.0000E+00  0.0000E+00
    -57.627  0.0000E+00  0.0000E+00
    -57.588  0.0000E+00  0.0000E+00
    -57.549  0.0000E+00  0.0000E+00
    -57.510  0.0000E+00  0.0000E+00
    -57.471  0.0000E+00  0.0000E+00
    -57.433  0.0000E+00  0.0000E+00
    -57.394  0.0000E+00  0.0000E+00
    -57.355  0.0000E+00  0.0000E+00
    -57.316  0.0000E+00  0.0000E+00
    -57.278  0.0000E+00  0.0000E+00
    -57.239  0.0000E+00  0.0000E+00
    -57.200  0.0000E+00  0.0000E+00
    -57.161  0.0000E+00  0.0000E+00
    -57.122  0.0000E+00  0.0000E+00
    -57.084  0.0000E+00  0.0000E+00
    -57.045  0.0000E+00  0.0000E+00
    -57.006  0.0000E+00  0.0000E+00
    -56.967  0.0000E+00  0.0000E+00
    -56.929  0.0000E+00  0.0000E+00
    -56.890  0.0000E+00  0.0000E+00
    -56.851  0.0000E+00  0.0000E+00
    -56.812  0.0000E+00  0.0000E+00
    -56.774  0.0000E+00  0.0000E+00
    -56.735  0.0000E+00  0.0000E+00
    -56.696  0.0000E+00  0.0000E+00
    -56.657  0.0000E+00  0.0000E+00
    -56.618  0.0000E+00  0.0000E+00
    -56.580  0.0000E+00  0.0000E+00
    -56.541  0.0000E+00  0.0000E+00
    -56.502  0.0000E+00  0.0000E+00
    -56.463  0.0000E+00  0.0000E+00
    -56.425  0.0000E+00  0.0000E+00
    -56.386  0.0000E+00  0.0000E+00
    -56.347  0.0000E+00  0.0000E+00
    -56.308  0.0000E+00  0.0000E+00
    -56.270  0.0000E+00  0.0000E+00
    -56.231  0.0000E+00  0.0000E+00
    -56.192  0.0000E+00  0.0000E+00
    -56.153  0.0000E+00  0.0000E+00
    -56.114  0.0000E+00  0.0000E+00
    -56.076  0.0000E+00  0.0000E+00
    -56.037  0.0000E+00  0.0000E+00
    -55.998  0.0000E+00  0.0000E+00
    -55.959  0.0000E+00  0.0000E+00
    -55.921  0.0000E+00  0.0000E+00
    -55.882  0.0000E+00  0.0000E+00
    -55.843  0.0000E+00  0.0000E+00
    -55.804  0.0000E+00  0.0000E+00
    -55.765  0.2062E-14  0.7994E-16
    -55.727  0.1193E-10  0.4626E-12
    -55.688  0.1783E-07  0.6918E-09
    -55.649  0.8690E-05  0.3376E-06
    -55.610  0.1417E-02  0.5527E-04
    -55.572  0.7990E-01  0.3153E-02
    -55.533  0.1620E+01  0.6597E-01
    -55.494  0.1223E+02  0.5400E+00
    -55.455  0.3489E+02  0.1893E+01
    -55.417  0.3744E+02  0.3345E+01
    -55.378  0.1474E+02  0.3916E+01
    -55.339  0.2058E+01  0.3996E+01
    -55.300  0.9824E-01  0.4000E+01
    -55.261  0.1552E-02  0.4000E+01
    -55.223  0.7922E-05  0.4000E+01
    -55.184  0.1283E-07  0.4000E+01
    -55.145  0.6505E-11  0.4000E+01
    -55.106  0.0000E+00  0.4000E+01
    -55.068  0.0000E+00  0.4000E+01
    -55.029  0.0000E+00  0.4000E+01
    -54.990  0.0000E+00  0.4000E+01
    -54.951  0.0000E+00  0.4000E+01
    -54.913  0.0000E+00  0.4000E+01
    -54.874  0.0000E+00  0.4000E+01
    -54.835  0.0000E+00  0.4000E+01
    -54.796  0.0000E+00  0.4000E+01
    -54.757  0.0000E+00  0.4000E+01
    -54.719  0.0000E+00  0.4000E+01
    -54.680  0.0000E+00  0.4000E+01
    -54.641  0.0000E+00  0.4000E+01
    -54.602  0.0000E+00  0.4000E+01
    -54.564  0.0000E+00  0.4000E+01
    -54.525  0.0000E+00  0.4000E+01
    -54.486  0.0000E+00  0.4000E+01
    -54.447  0.0000E+00  0.4000E+01
    -54.408  0.0000E+00  0.4000E+01
    -54.370  0.0000E+00  0.4000E+01
    -54.331  0.0000E+00  0.4000E+01
    -54.292  0.0000E+00  0.4000E+01
    -54.253  0.0000E+00  0.4000E+01
    -54.215  0.0000E+00  0.4000E+01
    -54.176  0.0000E+00  0.4000E+01
    -54.137  0.0000E+00  0.4000E+01
    -54.098  0.0000E+00  0.4000E+01
    -54.060  0.0000E+00  0.4000E+01
    -54.021  0.0000E+00  0.4000E+01
    -53.982  0.0000E+00  0.4000E+01
    -53.943  0.0000E+00  0.4000E+01
    -53.904  0.0000E+00  0.4000E+01
    -53.866  0.0000E+00  0.4000E+01
    -53.827  0.0000E+00  0.4000E+01
    -53.788  0.0000E+00  0.4000E+01
    -53.749  0.0000E+00  0.4000E+01
    -53.711  0.0000E+00  0.4000E+01
    -53.672  0.0000E+00  0.4000E+01
    -53.633  0.0000E+00  0.4000E+01
    -53.594  0.0000E+00  0.4000E+01
    -53.556  0.0000E+00  0.4000E+01
    -53.517  0.0000E+00  0.4000E+01
    -53.478  0.0000E+00  0.4000E+01
    -53.439  0.0000E+00  0.4000E+01
    -53.400  0.0000E+00  0.4000E+01
    -53.362  0.0000E+00  0.4000E+01
    -53.323  0.0000E+00  0.4000E+01
    -53.284  0.0000E+00  0.4000E+01
    -53.245  0.0000E+00  0.4000E+01
    -53.207  0.0000E+00  0.4000E+01
    -53.168  0.0000E+00  0.4000E+01
    -53.129  0.0000E+00  0.4000E+01
    -53.090  0.0000E+00  0.4000E+01
    -53.051  0.0000E+00  0.4000E+01
    -53.013  0.0000E+00  0.4000E+01
    -52.974  0.0000E+00  0.4000E+01
    -52.935  0.0000E+00  0.4000E+01
    -52.896  0.0000E+00  0.4000E+01
    -52.858  0.0000E+00  0.4000E+01
    -52.819  0.0000E+00  0.4000E+01
    -52.780  0.0000E+00  0.4000E+01
    -52.741  0.0000E+00  0.4000E+01
    -52.703  0.0000E+00  0.4000E+01
    -52.664  0.0000E+00  0.4000E+01
    -52.625  0.0000E+00  0.4000E+01
    -52.586  0.0000E+00  0.4000E+01
    -52.547  0.0000E+00  0.4000E+01
    -52.509  0.0000E+00  0.4000E+01
    -52.470  0.0000E+00  0.4000E+01
    -52.431  0.0000E+00  0.4000E+01
    -52.392  0.0000E+00  0.4000E+01
    -52.354  0.0000E+00  0.4000E+01
    -52.315  0.0000E+00  0.4000E+01
    -52.276  0.0000E+00  0.4000E+01
    -52.237  0.0000E+00  0.4000E+01
    -52.199  0.0000E+00  0.4000E+01
    -52.160  0.0000E+00  0.4000E+01
    -52.121  0.0000E+00  0.4000E+01
    -52.082  0.0000E+00  0.4000E+01
    -52.043  0.0000E+00  0.4000E+01
    -52.005  0.0000E+00  0.4000E+01
    -51.966  0.0000E+00  0.4000E+01
    -51.927  0.0000E+00  0.4000E+01
    -51.888  0.0000E+00  0.4000E+01
    -51.850  0.0000E+00  0.4000E+01
    -51.811  0.0000E+00  0.4000E+01
    -51.772  0.0000E+00  0.4000E+01
    -51.733  0.0000E+00  0.4000E+01
    -51.694  0.0000E+00  0.4000E+01
    -51.656  0.0000E+00  0.4000E+01
    -51.617  0.0000E+00  0.4000E+01
    -51.578  0.0000E+00  0.4000E+01
    -51.539  0.0000E+00  0.4000E+01
    -51.501  0.0000E+00  0.4000E+01
    -51.462  0.0000E+00  0.4000E+01
    -51.423  0.0000E+00  0.4000E+01
    -51.384  0.0000E+00  0.4000E+01
    -51.346  0.0000E+00  0.4000E+01
    -51.307  0.0000E+00  0.4000E+01
    -51.268  0.0000E+00  0.4000E+01
    -51.229  0.0000E+00  0.4000E+01
    -51.190  0.0000E+00  0.4000E+01
    -51.152  0.0000E+00  0.4000E+01
    -51.113  0.0000E+00  0.4000E+01
    -51.074  0.0000E+00  0.4000E+01
    -51.035  0.0000E+00  0.4000E+01
    -50.997  0.0000E+00  0.4000E+01
    -50.958  0.0000E+00  0.4000E+01
    -50.919  0.0000E+00  0.4000E+01
    -50.880  0.0000E+00  0.4000E+01
    -50.842  0.0000E+00  0.4000E+01
    -50.803  0.0000E+00  0.4000E+01
    -50.764  0.0000E+00  0.4000E+01
    -50.725  0.0000E+00  0.4000E+01
    -50.686  0.0000E+00  0.4000E+01
    -50.648  0.0000E+00  0.4000E+01
    -50.609  0.0000E+00  0.4000E+01
    -50.570  0.0000E+00  0.4000E+01
    -50.531  0.0000E+00  0.4000E+01
    -50.493  0.0000E+00  0.4000E+01
    -50.454  0.0000E+00  0.4000E+01
    -50.415  0.0000E+00  0.4000E+01
    -50.376  0.0000E+00  0.4000E+01
    -50.337  0.0000E+00  0.4000E+01
    -50.299  0.0000E+00  0.4000E+01
    -50.260  0.0000E+00  0.4000E+01
    -50.221  0.0000E+00  0.4000E+01
    -50.182  0.0000E+00  0.4000E+01
    -50.144  0.0000E+00  0.4000E+01
    -50.105  0.0000E+00  0.4000E+01
    -50.066  0.0000E+00  0.4000E+01
    -50.027  0.0000E+00  0.4000E+01
    -49.989  0.0000E+00  0.4000E+01
    -49.950  0.0000E+00  0.4000E+01
    -49.911  0.0000E+00  0.4000E+01
    -49.872  0.0000E+00  0.4000E+01
    -49.833  0.0000E+00  0.4000E+01
    -49.795  0.0000E+00  0.4000E+01
    -49.756  0.0000E+00  0.4000E+01
    -49.717  0.0000E+00  0.4000E+01
    -49.678  0.0000E+00  0.4000E+01
    -49.640  0.0000E+00  0.4000E+01
    -49.601  0.0000E+00  0.4000E+01
    -49.562  0.0000E+00  0.4000E+01
    -49.523  0.0000E+00  0.4000E+01
    -49.485  0.0000E+00  0.4000E+01
    -49.446  0.0000E+00  0.4000E+01
    -49.407  0.0000E+00  0.4000E+01
    -49.368  0.0000E+00  0.4000E+01
    -49.329  0.0000E+00  0.4000E+01
    -49.291  0.0000E+00  0.4000E+01
    -49.252  0.0000E+00  0.4000E+01
    -49.213  0.0000E+00  0.4000E+01
    -49.174  0.0000E+00  0.4000E+01
    -49.136  0.0000E+00  0.4000E+01
    -49.097  0.0000E+00  0.4000E+01
    -49.058  0.0000E+00  0.4000E+01
    -49.019  0.0000E+00  0.4000E+01
    -48.980  0.0000E+00  0.4000E+01
    -48.942  0.0000E+00  0.4000E+01
    -48.903  0.0000E+00  0.4000E+01
    -48.864  0.0000E+00  0.4000E+01
    -48.825  0.0000E+00  0.4000E+01
    -48.787  0.0000E+00  0.4000E+01
    -48.748  0.0000E+00  0.4000E+01
    -48.709  0.0000E+00  0.4000E+01
    -48.670  0.0000E+00  0.4000E+01
    -48.632  0.0000E+00  0.4000E+01
    -48.593  0.0000E+00  0.4000E+01
    -48.554  0.0000E+00  0.4000E+01
    -48.515  0.0000E+00  0.4000E+01
    -48.476  0.0000E+00  0.4000E+01
    -48.438  0.0000E+00  0.4000E+01
    -48.399  0.0000E+00  0.4000E+01
    -48.360  0.0000E+00  0.4000E+01
    -48.321  0.0000E+00  0.4000E+01
    -48.283  0.0000E+00  0.4000E+01
    -48.244  0.0000E+00  0.4000E+01
    -48.205  0.0000E+00  0.4000E+01
    -48.166  0.0000E+00  0.4000E+01
    -48.128  0.0000E+00  0.4000E+01
    -48.089  0.0000E+00  0.4000E+01
    -48.050  0.0000E+00  0.4000E+01
    -48.011  0.0000E+00  0.4000E+01
    -47.972  0.0000E+00  0.4000E+01
    -47.934  0.0000E+00  0.4000E+01
    -47.895  0.0000E+00  0.4000E+01
    -47.856  0.0000E+00  0.4000E+01
    -47.817  0.0000E+00  0.4000E+01
    -47.779  0.0000E+00  0.4000E+01
    -47.740  0.0000E+00  0.4000E+01
    -47.701  0.0000E+00  0.4000E+01
    -47.662  0.0000E+00  0.4000E+01
    -47.623  0.0000E+00  0.4000E+01
    -47.585  0.0000E+00  0.4000E+01
    -47.546  0.0000E+00  0.4000E+01
    -47.507  0.0000E+00  0.4000E+01
    -47.468  0.0000E+00  0.4000E+01
    -47.430  0.0000E+00  0.4000E+01
    -47.391  0.0000E+00  0.4000E+01
    -47.352  0.0000E+00  0.4000E+01
    -47.313  0.0000E+00  0.4000E+01
    -47.275  0.0000E+00  0.4000E+01
    -47.236  0.0000E+00  0.4000E+01
    -47.197  0.0000E+00  0.4000E+01
    -47.158  0.0000E+00  0.4000E+01
    -47.119  0.0000E+00  0.4000E+01
    -47.081  0.0000E+00  0.4000E+01
    -47.042  0.0000E+00  0.4000E+01
    -47.003  0.0000E+00  0.4000E+01
    -46.964  0.0000E+00  0.4000E+01
    -46.926  0.0000E+00  0.4000E+01
    -46.887  0.0000E+00  0.4000E+01
    -46.848  0.0000E+00  0.4000E+01
    -46.809  0.0000E+00  0.4000E+01
    -46.771  0.0000E+00  0.4000E+01
    -46.732  0.0000E+00  0.4000E+01
    -46.693  0.0000E+00  0.4000E+01
    -46.654  0.0000E+00  0.4000E+01
    -46.615  0.0000E+00  0.4000E+01
    -46.577  0.0000E+00  0.4000E+01
    -46.538  0.0000E+00  0.4000E+01
    -46.499  0.0000E+00  0.4000E+01
    -46.460  0.0000E+00  0.4000E+01
    -46.422  0.0000E+00  0.4000E+01
    -46.383  0.0000E+00  0.4000E+01
    -46.344  0.0000E+00  0.4000E+01
    -46.305  0.0000E+00  0.4000E+01
    -46.266  0.0000E+00  0.4000E+01
    -46.228  0.0000E+00  0.4000E+01
    -46.189  0.0000E+00  0.4000E+01
    -46.150  0.0000E+00  0.4000E+01
    -46.111  0.0000E+00  0.4000E+01
    -46.073  0.0000E+00  0.4000E+01
    -46.034  0.0000E+00  0.4000E+01
    -45.995  0.0000E+00  0.4000E+01
    -45.956  0.0000E+00  0.4000E+01
    -45.918  0.0000E+00  0.4000E+01
    -45.879  0.0000E+00  0.4000E+01
    -45.840  0.0000E+00  0.4000E+01
    -45.801  0.0000E+00  0.4000E+01
    -45.762  0.0000E+00  0.4000E+01
    -45.724  0.0000E+00  0.4000E+01
    -45.685  0.0000E+00  0.4000E+01
    -45.646  0.0000E+00  0.4000E+01
    -45.607  0.0000E+00  0.4000E+01
    -45.569  0.0000E+00  0.4000E+01
    -45.530  0.0000E+00  0.4000E+01
    -45.491  0.0000E+00  0.4000E+01
    -45.452  0.0000E+00  0.4000E+01
    -45.414  0.0000E+00  0.4000E+01
    -45.375  0.0000E+00  0.4000E+01
    -45.336  0.0000E+00  0.4000E+01
    -45.297  0.0000E+00  0.4000E+01
    -45.258  0.0000E+00  0.4000E+01
    -45.220  0.0000E+00  0.4000E+01
    -45.181  0.0000E+00  0.4000E+01
    -45.142  0.0000E+00  0.4000E+01
    -45.103  0.0000E+00  0.4000E+01
    -45.065  0.0000E+00  0.4000E+01
    -45.026  0.0000E+00  0.4000E+01
    -44.987  0.0000E+00  0.4000E+01
    -44.948  0.0000E+00  0.4000E+01
    -44.909  0.0000E+00  0.4000E+01
    -44.871  0.0000E+00  0.4000E+01
    -44.832  0.0000E+00  0.4000E+01
    -44.793  0.0000E+00  0.4000E+01
    -44.754  0.0000E+00  0.4000E+01
    -44.716  0.0000E+00  0.4000E+01
    -44.677  0.0000E+00  0.4000E+01
    -44.638  0.0000E+00  0.4000E+01
    -44.599  0.0000E+00  0.4000E+01
    -44.561  0.0000E+00  0.4000E+01
    -44.522  0.0000E+00  0.4000E+01
    -44.483  0.0000E+00  0.4000E+01
    -44.444  0.0000E+00  0.4000E+01
    -44.405  0.0000E+00  0.4000E+01
    -44.367  0.0000E+00  0.4000E+01
    -44.328  0.0000E+00  0.4000E+01
    -44.289  0.0000E+00  0.4000E+01
    -44.250  0.0000E+00  0.4000E+01
    -44.212  0.0000E+00  0.4000E+01
    -44.173  0.0000E+00  0.4000E+01
    -44.134  0.0000E+00  0.4000E+01
    -44.095  0.0000E+00  0.4000E+01
    -44.057  0.0000E+00  0.4000E+01
    -44.018  0.0000E+00  0.4000E+01
    -43.979  0.0000E+00  0.4000E+01
    -43.940  0.0000E+00  0.4000E+01
    -43.901  0.0000E+00  0.4000E+01
    -43.863  0.0000E+00  0.4000E+01
    -43.824  0.0000E+00  0.4000E+01
    -43.785  0.0000E+00  0.4000E+01
    -43.746  0.0000E+00  0.4000E+01
    -43.708  0.0000E+00  0.4000E+01
    -43.669  0.0000E+00  0.4000E+01
    -43.630  0.0000E+00  0.4000E+01
    -43.591  0.0000E+00  0.4000E+01
    -43.552  0.0000E+00  0.4000E+01
    -43.514  0.0000E+00  0.4000E+01
    -43.475  0.0000E+00  0.4000E+01
    -43.436  0.0000E+00  0.4000E+01
    -43.397  0.0000E+00  0.4000E+01
    -43.359  0.0000E+00  0.4000E+01
    -43.320  0.0000E+00  0.4000E+01
    -43.281  0.0000E+00  0.4000E+01
    -43.242  0.0000E+00  0.4000E+01
    -43.204  0.0000E+00  0.4000E+01
    -43.165  0.0000E+00  0.4000E+01
    -43.126  0.0000E+00  0.4000E+01
    -43.087  0.0000E+00  0.4000E+01
    -43.048  0.0000E+00  0.4000E+01
    -43.010  0.0000E+00  0.4000E+01
    -42.971  0.0000E+00  0.4000E+01
    -42.932  0.0000E+00  0.4000E+01
    -42.893  0.0000E+00  0.4000E+01
    -42.855  0.0000E+00  0.4000E+01
    -42.816  0.0000E+00  0.4000E+01
    -42.777  0.0000E+00  0.4000E+01
    -42.738  0.0000E+00  0.4000E+01
    -42.700  0.0000E+00  0.4000E+01
    -42.661  0.0000E+00  0.4000E+01
    -42.622  0.0000E+00  0.4000E+01
    -42.583  0.0000E+00  0.4000E+01
    -42.544  0.0000E+00  0.4000E+01
    -42.506  0.0000E+00  0.4000E+01
    -42.467  0.0000E+00  0.4000E+01
    -42.428  0.0000E+00  0.4000E+01
    -42.389  0.0000E+00  0.4000E+01
    -42.351  0.0000E+00  0.4000E+01
    -42.312  0.0000E+00  0.4000E+01
    -42.273  0.0000E+00  0.4000E+01
    -42.234  0.0000E+00  0.4000E+01
    -42.195  0.0000E+00  0.4000E+01
    -42.157  0.0000E+00  0.4000E+01
    -42.118  0.0000E+00  0.4000E+01
    -42.079  0.0000E+00  0.4000E+01
    -42.040  0.0000E+00  0.4000E+01
    -42.002  0.0000E+00  0.4000E+01
    -41.963  0.0000E+00  0.4000E+01
    -41.924  0.0000E+00  0.4000E+01
    -41.885  0.0000E+00  0.4000E+01
    -41.847  0.0000E+00  0.4000E+01
    -41.808  0.0000E+00  0.4000E+01
    -41.769  0.0000E+00  0.4000E+01
    -41.730  0.0000E+00  0.4000E+01
    -41.691  0.0000E+00  0.4000E+01
    -41.653  0.0000E+00  0.4000E+01
    -41.614  0.0000E+00  0.4000E+01
    -41.575  0.0000E+00  0.4000E+01
    -41.536  0.0000E+00  0.4000E+01
    -41.498  0.0000E+00  0.4000E+01
    -41.459  0.0000E+00  0.4000E+01
    -41.420  0.0000E+00  0.4000E+01
    -41.381  0.0000E+00  0.4000E+01
    -41.343  0.0000E+00  0.4000E+01
    -41.304  0.0000E+00  0.4000E+01
    -41.265  0.0000E+00  0.4000E+01
    -41.226  0.0000E+00  0.4000E+01
    -41.187  0.0000E+00  0.4000E+01
    -41.149  0.0000E+00  0.4000E+01
    -41.110  0.0000E+00  0.4000E+01
    -41.071  0.0000E+00  0.4000E+01
    -41.032  0.0000E+00  0.4000E+01
    -40.994  0.0000E+00  0.4000E+01
    -40.955  0.0000E+00  0.4000E+01
    -40.916  0.0000E+00  0.4000E+01
    -40.877  0.0000E+00  0.4000E+01
    -40.838  0.0000E+00  0.4000E+01
    -40.800  0.0000E+00  0.4000E+01
    -40.761  0.0000E+00  0.4000E+01
    -40.722  0.0000E+00  0.4000E+01
    -40.683  0.0000E+00  0.4000E+01
    -40.645  0.0000E+00  0.4000E+01
    -40.606  0.0000E+00  0.4000E+01
    -40.567  0.0000E+00  0.4000E+01
    -40.528  0.0000E+00  0.4000E+01
    -40.490  0.0000E+00  0.4000E+01
    -40.451  0.0000E+00  0.4000E+01
    -40.412  0.0000E+00  0.4000E+01
    -40.373  0.0000E+00  0.4000E+01
    -40.334  0.0000E+00  0.4000E+01
    -40.296  0.0000E+00  0.4000E+01
    -40.257  0.0000E+00  0.4000E+01
    -40.218  0.0000E+00  0.4000E+01
    -40.179  0.0000E+00  0.4000E+01
    -40.141  0.0000E+00  0.4000E+01
    -40.102  0.0000E+00  0.4000E+01
    -40.063  0.0000E+00  0.4000E+01
    -40.024  0.0000E+00  0.4000E+01
    -39.986  0.0000E+00  0.4000E+01
    -39.947  0.0000E+00  0.4000E+01
    -39.908  0.0000E+00  0.4000E+01
    -39.869  0.0000E+00  0.4000E+01
    -39.830  0.0000E+00  0.4000E+01
    -39.792  0.0000E+00  0.4000E+01
    -39.753  0.0000E+00  0.4000E+01
    -39.714  0.0000E+00  0.4000E+01
    -39.675  0.0000E+00  0.4000E+01
    -39.637  0.0000E+00  0.4000E+01
    -39.598  0.0000E+00  0.4000E+01
    -39.559  0.0000E+00  0.4000E+01
    -39.520  0.0000E+00  0.4000E+01
    -39.481  0.0000E+00  0.4000E+01
    -39.443  0.0000E+00  0.4000E+01
    -39.404  0.0000E+00  0.4000E+01
    -39.365  0.0000E+00  0.4000E+01
    -39.326  0.0000E+00  0.4000E+01
    -39.288  0.0000E+00  0.4000E+01
    -39.249  0.0000E+00  0.4000E+01
    -39.210  0.0000E+00  0.4000E+01
    -39.171  0.0000E+00  0.4000E+01
    -39.133  0.0000E+00  0.4000E+01
    -39.094  0.0000E+00  0.4000E+01
    -39.055  0.0000E+00  0.4000E+01
    -39.016  0.0000E+00  0.4000E+01
    -38.977  0.0000E+00  0.4000E+01
    -38.939  0.0000E+00  0.4000E+01
    -38.900  0.0000E+00  0.4000E+01
    -38.861  0.0000E+00  0.4000E+01
    -38.822  0.0000E+00  0.4000E+01
    -38.784  0.0000E+00  0.4000E+01
    -38.745  0.0000E+00  0.4000E+01
    -38.706  0.0000E+00  0.4000E+01
    -38.667  0.0000E+00  0.4000E+01
    -38.629  0.0000E+00  0.4000E+01
    -38.590  0.0000E+00  0.4000E+01
    -38.551  0.0000E+00  0.4000E+01
    -38.512  0.0000E+00  0.4000E+01
    -38.473  0.0000E+00  0.4000E+01
    -38.435  0.0000E+00  0.4000E+01
    -38.396  0.0000E+00  0.4000E+01
    -38.357  0.0000E+00  0.4000E+01
    -38.318  0.0000E+00  0.4000E+01
    -38.280  0.0000E+00  0.4000E+01
    -38.241  0.0000E+00  0.4000E+01
    -38.202  0.0000E+00  0.4000E+01
    -38.163  0.0000E+00  0.4000E+01
    -38.124  0.0000E+00  0.4000E+01
    -38.086  0.0000E+00  0.4000E+01
    -38.047  0.0000E+00  0.4000E+01
    -38.008  0.0000E+00  0.4000E+01
    -37.969  0.0000E+00  0.4000E+01
    -37.931  0.0000E+00  0.4000E+01
    -37.892  0.0000E+00  0.4000E+01
    -37.853  0.0000E+00  0.4000E+01
    -37.814  0.0000E+00  0.4000E+01
    -37.776  0.0000E+00  0.4000E+01
    -37.737  0.0000E+00  0.4000E+01
    -37.698  0.0000E+00  0.4000E+01
    -37.659  0.0000E+00  0.4000E+01
    -37.620  0.0000E+00  0.4000E+01
    -37.582  0.0000E+00  0.4000E+01
    -37.543  0.0000E+00  0.4000E+01
    -37.504  0.0000E+00  0.4000E+01
    -37.465  0.0000E+00  0.4000E+01
    -37.427  0.0000E+00  0.4000E+01
    -37.388  0.0000E+00  0.4000E+01
    -37.349  0.0000E+00  0.4000E+01
    -37.310  0.0000E+00  0.4000E+01
    -37.272  0.0000E+00  0.4000E+01
    -37.233  0.0000E+00  0.4000E+01
    -37.194  0.0000E+00  0.4000E+01
    -37.155  0.0000E+00  0.4000E+01
    -37.116  0.0000E+00  0.4000E+01
    -37.078  0.0000E+00  0.4000E+01
    -37.039  0.0000E+00  0.4000E+01
    -37.000  0.0000E+00  0.4000E+01
    -36.961  0.0000E+00  0.4000E+01
    -36.923  0.0000E+00  0.4000E+01
    -36.884  0.0000E+00  0.4000E+01
    -36.845  0.0000E+00  0.4000E+01
    -36.806  0.0000E+00  0.4000E+01
    -36.767  0.0000E+00  0.4000E+01
    -36.729  0.0000E+00  0.4000E+01
    -36.690  0.0000E+00  0.4000E+01
    -36.651  0.0000E+00  0.4000E+01
    -36.612  0.0000E+00  0.4000E+01
    -36.574  0.0000E+00  0.4000E+01
    -36.535  0.0000E+00  0.4000E+01
    -36.496  0.0000E+00  0.4000E+01
    -36.457  0.0000E+00  0.4000E+01
    -36.419  0.0000E+00  0.4000E+01
    -36.380  0.0000E+00  0.4000E+01
    -36.341  0.0000E+00  0.4000E+01
    -36.302  0.0000E+00  0.4000E+01
    -36.263  0.0000E+00  0.4000E+01
    -36.225  0.0000E+00  0.4000E+01
    -36.186  0.0000E+00  0.4000E+01
    -36.147  0.0000E+00  0.4000E+01
    -36.108  0.0000E+00  0.4000E+01
    -36.070  0.0000E+00  0.4000E+01
    -36.031  0.0000E+00  0.4000E+01
    -35.992  0.0000E+00  0.4000E+01
    -35.953  0.0000E+00  0.4000E+01
    -35.915  0.0000E+00  0.4000E+01
    -35.876  0.0000E+00  0.4000E+01
    -35.837  0.0000E+00  0.4000E+01
    -35.798  0.0000E+00  0.4000E+01
    -35.759  0.0000E+00  0.4000E+01
    -35.721  0.0000E+00  0.4000E+01
    -35.682  0.0000E+00  0.4000E+01
    -35.643  0.0000E+00  0.4000E+01
    -35.604  0.0000E+00  0.4000E+01
    -35.566  0.0000E+00  0.4000E+01
    -35.527  0.0000E+00  0.4000E+01
    -35.488  0.0000E+00  0.4000E+01
    -35.449  0.0000E+00  0.4000E+01
    -35.410  0.0000E+00  0.4000E+01
    -35.372  0.0000E+00  0.4000E+01
    -35.333  0.0000E+00  0.4000E+01
    -35.294  0.0000E+00  0.4000E+01
    -35.255  0.0000E+00  0.4000E+01
    -35.217  0.0000E+00  0.4000E+01
    -35.178  0.0000E+00  0.4000E+01
    -35.139  0.0000E+00  0.4000E+01
    -35.100  0.0000E+00  0.4000E+01
    -35.062  0.0000E+00  0.4000E+01
    -35.023  0.0000E+00  0.4000E+01
    -34.984  0.0000E+00  0.4000E+01
    -34.945  0.0000E+00  0.4000E+01
    -34.906  0.0000E+00  0.4000E+01
    -34.868  0.0000E+00  0.4000E+01
    -34.829  0.0000E+00  0.4000E+01
    -34.790  0.0000E+00  0.4000E+01
    -34.751  0.0000E+00  0.4000E+01
    -34.713  0.0000E+00  0.4000E+01
    -34.674  0.0000E+00  0.4000E+01
    -34.635  0.0000E+00  0.4000E+01
    -34.596  0.0000E+00  0.4000E+01
    -34.558  0.0000E+00  0.4000E+01
    -34.519  0.0000E+00  0.4000E+01
    -34.480  0.0000E+00  0.4000E+01
    -34.441  0.0000E+00  0.4000E+01
    -34.402  0.0000E+00  0.4000E+01
    -34.364  0.0000E+00  0.4000E+01
    -34.325  0.0000E+00  0.4000E+01
    -34.286  0.0000E+00  0.4000E+01
    -34.247  0.0000E+00  0.4000E+01
    -34.209  0.0000E+00  0.4000E+01
    -34.170  0.0000E+00  0.4000E+01
    -34.131  0.0000E+00  0.4000E+01
    -34.092  0.0000E+00  0.4000E+01
    -34.053  0.0000E+00  0.4000E+01
    -34.015  0.0000E+00  0.4000E+01
    -33.976  0.0000E+00  0.4000E+01
    -33.937  0.0000E+00  0.4000E+01
    -33.898  0.0000E+00  0.4000E+01
    -33.860  0.0000E+00  0.4000E+01
    -33.821  0.0000E+00  0.4000E+01
    -33.782  0.0000E+00  0.4000E+01
    -33.743  0.0000E+00  0.4000E+01
    -33.705  0.0000E+00  0.4000E+01
    -33.666  0.0000E+00  0.4000E+01
    -33.627  0.0000E+00  0.4000E+01
    -33.588  0.0000E+00  0.4000E+01
    -33.549  0.0000E+00  0.4000E+01
    -33.511  0.0000E+00  0.4000E+01
    -33.472  0.0000E+00  0.4000E+01
    -33.433  0.0000E+00  0.4000E+01
    -33.394  0.0000E+00  0.4000E+01
    -33.356  0.0000E+00  0.4000E+01
    -33.317  0.0000E+00  0.4000E+01
    -33.278  0.0000E+00  0.4000E+01
    -33.239  0.0000E+00  0.4000E+01
    -33.201  0.0000E+00  0.4000E+01
    -33.162  0.0000E+00  0.4000E+01
    -33.123  0.0000E+00  0.4000E+01
    -33.084  0.0000E+00  0.4000E+01
    -33.045  0.0000E+00  0.4000E+01
    -33.007  0.0000E+00  0.4000E+01
    -32.968  0.0000E+00  0.4000E+01
    -32.929  0.0000E+00  0.4000E+01
    -32.890  0.0000E+00  0.4000E+01
    -32.852  0.0000E+00  0.4000E+01
    -32.813  0.0000E+00  0.4000E+01
    -32.774  0.0000E+00  0.4000E+01
    -32.735  0.0000E+00  0.4000E+01
    -32.696  0.0000E+00  0.4000E+01
    -32.658  0.0000E+00  0.4000E+01
    -32.619  0.0000E+00  0.4000E+01
    -32.580  0.0000E+00  0.4000E+01
    -32.541  0.0000E+00  0.4000E+01
    -32.503  0.0000E+00  0.4000E+01
    -32.464  0.0000E+00  0.4000E+01
    -32.425  0.0000E+00  0.4000E+01
    -32.386  0.0000E+00  0.4000E+01
    -32.348  0.0000E+00  0.4000E+01
    -32.309  0.0000E+00  0.4000E+01
    -32.270  0.0000E+00  0.4000E+01
    -32.231  0.0000E+00  0.4000E+01
    -32.192  0.0000E+00  0.4000E+01
    -32.154  0.0000E+00  0.4000E+01
    -32.115  0.0000E+00  0.4000E+01
    -32.076  0.0000E+00  0.4000E+01
    -32.037  0.0000E+00  0.4000E+01
    -31.999  0.0000E+00  0.4000E+01
    -31.960  0.0000E+00  0.4000E+01
    -31.921  0.0000E+00  0.4000E+01
    -31.882  0.0000E+00  0.4000E+01
    -31.844  0.0000E+00  0.4000E+01
    -31.805  0.0000E+00  0.4000E+01
    -31.766  0.0000E+00  0.4000E+01
    -31.727  0.0000E+00  0.4000E+01
    -31.688  0.0000E+00  0.4000E+01
    -31.650  0.0000E+00  0.4000E+01
    -31.611  0.0000E+00  0.4000E+01
    -31.572  0.0000E+00  0.4000E+01
    -31.533  0.0000E+00  0.4000E+01
    -31.495  0.0000E+00  0.4000E+01
    -31.456  0.0000E+00  0.4000E+01
    -31.417  0.0000E+00  0.4000E+01
    -31.378  0.0000E+00  0.4000E+01
    -31.339  0.0000E+00  0.4000E+01
    -31.301  0.0000E+00  0.4000E+01
    -31.262  0.0000E+00  0.4000E+01
    -31.223  0.0000E+00  0.4000E+01
    -31.184  0.0000E+00  0.4000E+01
    -31.146  0.0000E+00  0.4000E+01
    -31.107  0.0000E+00  0.4000E+01
    -31.068  0.0000E+00  0.4000E+01
    -31.029  0.0000E+00  0.4000E+01
    -30.991  0.0000E+00  0.4000E+01
    -30.952  0.0000E+00  0.4000E+01
    -30.913  0.0000E+00  0.4000E+01
    -30.874  0.0000E+00  0.4000E+01
    -30.835  0.0000E+00  0.4000E+01
    -30.797  0.0000E+00  0.4000E+01
    -30.758  0.0000E+00  0.4000E+01
    -30.719  0.0000E+00  0.4000E+01
    -30.680  0.0000E+00  0.4000E+01
    -30.642  0.0000E+00  0.4000E+01
    -30.603  0.0000E+00  0.4000E+01
    -30.564  0.0000E+00  0.4000E+01
    -30.525  0.0000E+00  0.4000E+01
    -30.487  0.0000E+00  0.4000E+01
    -30.448  0.0000E+00  0.4000E+01
    -30.409  0.0000E+00  0.4000E+01
    -30.370  0.0000E+00  0.4000E+01
    -30.331  0.0000E+00  0.4000E+01
    -30.293  0.0000E+00  0.4000E+01
    -30.254  0.0000E+00  0.4000E+01
    -30.215  0.0000E+00  0.4000E+01
    -30.176  0.0000E+00  0.4000E+01
    -30.138  0.0000E+00  0.4000E+01
    -30.099  0.0000E+00  0.4000E+01
    -30.060  0.0000E+00  0.4000E+01
    -30.021  0.4261E-13  0.4000E+01
    -29.982  0.1620E-09  0.4000E+01
    -29.944  0.1890E-06  0.4000E+01
    -29.905  0.6895E-04  0.4000E+01
    -29.866  0.7956E-02  0.4000E+01
    -29.827  0.2951E+00  0.4012E+01
    -29.789  0.3593E+01  0.4151E+01
    -29.750  0.1485E+02  0.4727E+01
    -29.711  0.2288E+02  0.5614E+01
    -29.672  0.1873E+02  0.6340E+01
    -29.634  0.1585E+02  0.6955E+01
    -29.595  0.2620E+02  0.7970E+01
    -29.556  0.5185E+02  0.9981E+01
    -29.517  0.6138E+02  0.1236E+02
    -29.478  0.4356E+02  0.1405E+02
    -29.440  0.2586E+02  0.1505E+02
    -29.401  0.1612E+02  0.1568E+02
    -29.362  0.6867E+01  0.1594E+02
    -29.323  0.1352E+01  0.1600E+02
    -29.285  0.1065E+00  0.1600E+02
    -29.246  0.3068E-02  0.1600E+02
    -29.207  0.3007E-04  0.1600E+02
    -29.168  0.9534E-07  0.1600E+02
    -29.130  0.9504E-10  0.1600E+02
    -29.091  0.2923E-13  0.1600E+02
    -29.052  0.0000E+00  0.1600E+02
    -29.013  0.0000E+00  0.1600E+02
    -28.974  0.0000E+00  0.1600E+02
    -28.936  0.0000E+00  0.1600E+02
    -28.897  0.0000E+00  0.1600E+02
    -28.858  0.0000E+00  0.1600E+02
    -28.819  0.0000E+00  0.1600E+02
    -28.781  0.0000E+00  0.1600E+02