    6    6    1    1
  0.2005336E+02  0.3179268E-09  0.3179267E-09  0.1374528E-08  0.5000000E-15
  1.000000000000000E-004
  CAR 
 2H-MoS2                                 
     52     15    128
 
  0.0000000E+00  0.0000000E+00  0.0000000E+00  0.8000000E-02
    1      -55.481672   1.000000
    2      -55.481586   1.000000
    3      -29.617010   1.000000
    4      -29.616307   1.000000
    5      -29.404731   1.000000
    6      -29.404699   1.000000
    7      -29.404674   1.000000
    8      -29.404641   1.000000
    9       -8.713659   1.000000
   10       -8.651068   1.000000
   11       -7.443699   1.000000
   12       -7.334782   1.000000
   13       -0.393080   1.000000
   14       -0.013964   1.000000
   15        2.812321   1.000000
   16        2.812483   1.000000
   17        2.814598   1.000000
   18        2.814761   1.000000
   19        3.110427   1.000000
   20        3.913022   1.000000
   21        3.913042   1.000000
   22        3.921387   1.000000
   23        3.921408   1.000000
   24        4.191493   1.000000
   25        5.094566   1.000000
   26        5.741738   1.000000
   27        8.164074   0.000000
   28        8.164256   0.000000
   29        8.170529   0.000000
   30        8.170712   0.000000
   31        8.392352   0.000000
   32        8.392436   0.000000
   33        8.427517   0.000000
   34        8.427601   0.000000
   35       11.435753   0.000000
   36       11.673152   0.000000
   37       13.075615   0.000000
   38       13.680514   0.000000
   39       14.356024   0.000000
   40       14.515180   0.000000
   41       16.106387   0.000000
   42       16.106898   0.000000
   43       16.224110   0.000000
   44       16.224640   0.000000
   45       17.417709   0.000000
   46       18.034634   0.000000
   47       18.035051   0.000000
   48       18.292273   0.000000
   49       18.292710   0.000000
   50       18.429419   0.000000
   51       19.657390   0.000000
   52       21.240137   0.000000
   53       21.244220   0.000000
   54       21.244588   0.000000
   55       21.347399   0.000000
   56       21.347554   0.000000
   57       21.543023   0.000000
   58       21.543462   0.000000
   59       21.689380   0.000000
   60       21.954372   0.000000
   61       21.954547   0.000000
   62       22.297834   0.000000
   63       23.002261   0.000000
   64       24.799566   0.000000
   65       24.827804   0.000000
   66       25.572780   0.000000
   67       25.848739   0.000000
   68       27.750776   0.000000
   69       27.750781   0.000000
   70       29.113885   0.000000
   71       29.113963   0.000000
   72       29.176325   0.000000
   73       30.080688   0.000000
   74       30.080750   0.000000
   75       30.641281   0.000000
   76       30.641659   0.000000
   77       31.285724   0.000000
   78       31.306580   0.000000
   79       31.768150   0.000000
   80       31.768207   0.000000
   81       32.141903   0.000000
   82       32.394417   0.000000
   83       32.524304   0.000000
   84       33.016828   0.000000
   85       33.017135   0.000000
   86       33.604843   0.000000
   87       35.129456   0.000000
   88       35.129503   0.000000
   89       35.280034   0.000000
   90       35.280217   0.000000
   91       36.585825   0.000000
   92       36.586213   0.000000
   93       37.511404   0.000000
   94       37.605275   0.000000
   95       37.605614   0.000000
   96       37.847228   0.000000
   97       38.398603   0.000000
   98       38.398632   0.000000
   99       38.401273   0.000000
  100       39.096107   0.000000
  101       39.097414   0.000000
  102       39.549470   0.000000
  103       40.294207   0.000000
  104       40.379018   0.000000
  105       40.380340   0.000000
  106       40.948347   0.000000
  107       41.191164   0.000000
  108       41.202482   0.000000
  109       42.134258   0.000000
  110       42.137608   0.000000
  111       42.973519   0.000000
  112       42.975901   0.000000
  113       43.562734   0.000000
  114       43.564444   0.000000
  115       43.838061   0.000000
  116       44.007971   0.000000
  117       44.958924   0.000000
  118       45.886079   0.000000
  119       46.718217   0.000000
  120       46.718342   0.000000
  121       46.784391   0.000000
  122       46.787066   0.000000
  123       47.023919   0.000000
  124       47.025210   0.000000
  125       47.464416   0.000000
  126       48.996844   0.000000
  127       48.998740   0.000000
  128       49.996815   0.000000
 
  0.2000000E+00 -0.1387779E-16  0.0000000E+00  0.4800000E-01
    1      -55.468250   1.000000
    2      -55.468058   1.000000
    3      -29.590544   1.000000
    4      -29.589713   1.000000
    5      -29.535258   1.000000
    6      -29.534731   1.000000
    7      -29.434360   1.000000
    8      -29.433963   1.000000
    9       -8.158290   1.000000
   10       -8.099263   1.000000
   11       -7.204408   1.000000
   12       -7.115247   1.000000
   13        0.159073   1.000000
   14        0.500032   1.000000
   15        1.824955   1.000000
   16        1.863979   1.000000
   17        2.058892   1.000000
   18        2.369269   1.000000
   19        3.187759   1.000000
   20        3.200395   1.000000
   21        3.374730   1.000000
   22        3.383545   1.000000
   23        4.049202   1.000000
   24        4.496096   1.000000
   25        4.859178   1.000000
   26        5.029679   1.000000
   27        7.407459   0.000000
   28        7.875104   0.000000
   29        7.886084   0.000000
   30        7.936891   0.000000
   31        7.973151   0.000000
   32        8.228062   0.000000
   33        8.910638   0.000000
   34        8.955682   0.000000
   35       12.839623   0.000000
   36       13.609231   0.000000
   37       13.854320   0.000000
   38       14.262183   0.000000
   39       14.951372   0.000000
   40       15.135230   0.000000
   41       15.137869   0.000000
   42       15.374121   0.000000
   43       16.862293   0.000000
   44       17.253647   0.000000
   45       17.264574   0.000000
   46       17.734075   0.000000
   47       17.754342   0.000000
   48       17.822413   0.000000
   49       18.341853   0.000000
   50       18.799735   0.000000
   51       18.933592   0.000000
   52       19.143098   0.000000
   53       19.483266   0.000000
   54       19.652631   0.000000
   55       20.471309   0.000000
   56       20.918153   0.000000
   57       22.102000   0.000000
   58       22.291377   0.000000
   59       22.422725   0.000000
   60       22.894912   0.000000
   61       25.018990   0.000000
   62       25.072468   0.000000
   63       25.245491   0.000000
   64       25.446889   0.000000
   65       26.110455   0.000000
   66       26.498537   0.000000
   67       26.843979   0.000000
   68       27.572382   0.000000
   69       27.599905   0.000000
   70       27.793724   0.000000
   71       28.596772   0.000000
   72       28.776960   0.000000
   73       28.796591   0.000000
   74       29.478930   0.000000
   75       29.566078   0.000000
   76       29.844957   0.000000
   77       30.788313   0.000000
   78       31.722628   0.000000
   79       31.908697   0.000000
   80       32.461412   0.000000
   81       32.680805   0.000000
   82       32.810639   0.000000
   83       32.946501   0.000000
   84       33.707703   0.000000
   85       33.833622   0.000000
   86       35.024365   0.000000
   87       35.404216   0.000000
   88       35.467676   0.000000
   89       35.568638   0.000000
   90       36.067514   0.000000
   91       36.333247   0.000000
   92       36.618682   0.000000
   93       36.706499   0.000000
   94       36.902311   0.000000
   95       37.664666   0.000000
   96       37.708031   0.000000
   97       38.291298   0.000000
   98       38.486251   0.000000
   99       38.575881   0.000000
  100       38.663148   0.000000
  101       38.815585   0.000000
  102       39.216190   0.000000
  103       39.300277   0.000000
  104       39.395941   0.000000
  105       39.585984   0.000000
  106       39.719003   0.000000
  107       42.185214   0.000000
  108       42.384743   0.000000
  109       42.456626   0.000000
  110       42.641149   0.000000
  111       43.156156   0.000000
  112       43.370261   0.000000
  113       43.688899   0.000000
  114       43.914245   0.000000
  115       44.244540   0.000000
  116       44.428736   0.000000
  117       44.675229   0.000000
  118       45.480437   0.000000
  119       45.831919   0.000000
  120       46.409915   0.000000
  121       46.855120   0.000000
  122       47.086010   0.000000
  123       47.437873   0.000000
  124       47.672933   0.000000
  125       48.053287   0.000000
  126       48.393084   0.000000
  127       48.600484   0.000000
  128       49.429646   0.000000
 
  0.4000000E+00 -0.2775558E-16  0.0000000E+00  0.4800000E-01
    1      -55.447200   1.000000
    2      -55.447122   1.000000
    3      -29.742479   1.000000
    4      -29.742186   1.000000
    5      -29.548476   1.000000
    6      -29.548287   1.000000
    7      -29.482927   1.000000
    8      -29.482870   1.000000
    9       -7.055816   1.000000
   10       -7.019416   1.000000
   11       -6.741798   1.000000
   12       -6.701890   1.000000
   13       -0.176768   1.000000
   14       -0.088572   1.000000
   15        0.802283   1.000000
   16        0.897996   1.000000
   17        1.337101   1.000000
   18        1.551248   1.000000
   19        2.365740   1.000000
   20        2.380967   1.000000
   21        3.520903   1.000000
   22        3.696909   1.000000
   23        4.285395   1.000000
   24        4.319746   1.000000
   25        4.496771   1.000000
   26        4.602853   1.000000
   27        7.606134   0.000000
   28        7.629574   0.000000
   29        7.833460   0.000000
   30        8.090380   0.000000
   31        8.885747   0.000000
   32        9.343025   0.000000
   33        9.572949   0.000000
   34        9.679294   0.000000
   35       12.054041   0.000000
   36       12.333127   0.000000
   37       13.121188   0.000000
   38       13.296559   0.000000
   39       13.321586   0.000000
   40       14.473587   0.000000
   41       14.581522   0.000000
   42       15.389808   0.000000
   43       15.960381   0.000000
   44       16.769478   0.000000
   45       16.861369   0.000000
   46       17.291731   0.000000
   47       18.270694   0.000000
   48       18.455457   0.000000
   49       19.496872   0.000000
   50       19.836539   0.000000
   51       20.554217   0.000000
   52       20.923684   0.000000
   53       20.970567   0.000000
   54       21.577431   0.000000
   55       21.841780   0.000000
   56       22.174713   0.000000
   57       23.017287   0.000000
   58       23.133620   0.000000
   59       23.170867   0.000000
   60       23.413421   0.000000
   61       24.220270   0.000000
   62       24.355736   0.000000
   63       24.623084   0.000000
   64       25.109634   0.000000
   65       26.043832   0.000000
   66       27.377874   0.000000
   67       27.478963   0.000000
   68       27.720242   0.000000
   69       27.836659   0.000000
   70       28.667381   0.000000
   71       29.010083   0.000000
   72       29.347102   0.000000
   73       30.349749   0.000000
   74       30.384458   0.000000
   75       30.912955   0.000000
   76       30.998808   0.000000
   77       31.184927   0.000000
   78       31.290945   0.000000
   79       31.468160   0.000000
   80       31.924820   0.000000
   81       32.270183   0.000000
   82       32.527844   0.000000
   83       32.820528   0.000000
   84       33.318978   0.000000
   85       33.404666   0.000000
   86       33.975578   0.000000
   87       34.385461   0.000000
   88       34.926280   0.000000
   89       35.763403   0.000000
   90       36.007580   0.000000
   91       36.349639   0.000000
   92       36.474222   0.000000
   93       36.884423   0.000000
   94       37.053466   0.000000
   95       37.288076   0.000000
   96       37.899397   0.000000
   97       38.163347   0.000000
   98       38.627551   0.000000
   99       39.007124   0.000000
  100       39.442539   0.000000
  101       39.532446   0.000000
  102       39.690749   0.000000
  103       39.902608   0.000000
  104       40.450656   0.000000
  105       40.786351   0.000000
  106       40.875806   0.000000
  107       42.038633   0.000000
  108       42.085357   0.000000
  109       42.618742   0.000000
  110       42.699083   0.000000
  111       42.987163   0.000000
  112       43.255363   0.000000
  113       44.050271   0.000000
  114       44.096686   0.000000
  115       44.268949   0.000000
  116       44.452965   0.000000
  117       44.561465   0.000000
  118       45.368923   0.000000
  119       45.590446   0.000000
  120       45.734910   0.000000
  121       45.777433   0.000000
  122       46.527232   0.000000
  123       46.877697   0.000000
  124       47.103395   0.000000
  125       47.563139   0.000000
  126       47.881521   0.000000
  127       48.119338   0.000000
  128       48.238941   0.000000
 
  0.2000000E+00  0.2000000E+00  0.0000000E+00  0.4800000E-01
    1      -55.451209   1.000000
    2      -55.451065   1.000000
    3      -29.670352   1.000000
    4      -29.670175   1.000000
    5      -29.556386   1.000000
    6      -29.556298   1.000000
    7      -29.507884   1.000000
    8      -29.507302   1.000000
    9       -7.304496   1.000000
   10       -7.258941   1.000000
   11       -6.833421   1.000000
   12       -6.777864   1.000000
   13        0.309878   1.000000
   14        0.432511   1.000000
   15        1.180772   1.000000
   16        1.226760   1.000000
   17        1.631945   1.000000
   18        1.767494   1.000000
   19        1.959013   1.000000
   20        2.214767   1.000000
   21        3.170710   1.000000
   22        3.178393   1.000000
   23        4.136858   1.000000
   24        4.202838   1.000000
   25        4.631457   1.000000
   26        4.633810   1.000000
   27        7.181462   0.000000
   28        7.643667   0.000000
   29        7.921611   0.000000
   30        8.019995   0.000000
   31        8.115717   0.000000
   32        8.455003   0.000000
   33        9.653313   0.000000
   34        9.947770   0.000000
   35       13.474610   0.000000
   36       13.665578   0.000000
   37       13.884114   0.000000
   38       14.061022   0.000000
   39       14.661195   0.000000
   40       15.143617   0.000000
   41       15.495179   0.000000
   42       15.734796   0.000000
   43       16.465892   0.000000
   44       16.489521   0.000000
   45       16.774359   0.000000
   46       17.106725   0.000000
   47       17.629833   0.000000
   48       17.695042   0.000000
   49       17.734855   0.000000
   50       18.010659   0.000000
   51       18.361718   0.000000
   52       19.922719   0.000000
   53       20.457723   0.000000
   54       20.719143   0.000000
   55       21.392594   0.000000
   56       21.493053   0.000000
   57       22.057092   0.000000
   58       23.532858   0.000000
   59       23.794071   0.000000
   60       24.560923   0.000000
   61       25.030389   0.000000
   62       25.308859   0.000000
   63       25.423340   0.000000
   64       25.688401   0.000000
   65       26.418044   0.000000
   66       26.447901   0.000000
   67       27.828572   0.000000
   68       28.404002   0.000000
   69       28.692213   0.000000
   70       28.708110   0.000000
   71       29.156078   0.000000
   72       29.239024   0.000000
   73       29.311424   0.000000
   74       29.449500   0.000000
   75       30.301872   0.000000
   76       30.408348   0.000000
   77       30.735969   0.000000
   78       30.819383   0.000000
   79       30.976097   0.000000
   80       31.999077   0.000000
   81       32.783517   0.000000
   82       32.882956   0.000000
   83       33.480809   0.000000
   84       33.902393   0.000000
   85       34.252583   0.000000
   86       34.328923   0.000000
   87       34.639457   0.000000
   88       34.689377   0.000000
   89       35.295415   0.000000
   90       35.564793   0.000000
   91       36.157754   0.000000
   92       36.228653   0.000000
   93       36.292035   0.000000
   94       36.782876   0.000000
   95       37.210714   0.000000
   96       37.522764   0.000000
   97       37.561698   0.000000
   98       37.793173   0.000000
   99       39.006376   0.000000
  100       39.815484   0.000000
  101       39.875807   0.000000
  102       40.069093   0.000000
  103       40.279889   0.000000
  104       40.645041   0.000000
  105       40.845977   0.000000
  106       41.042503   0.000000
  107       41.758336   0.000000
  108       41.919304   0.000000
  109       42.778912   0.000000
  110       42.779999   0.000000
  111       43.077144   0.000000
  112       43.368300   0.000000
  113       43.411995   0.000000
  114       44.147235   0.000000
  115       44.147340   0.000000
  116       44.480846   0.000000
  117       44.705898   0.000000
  118       45.362949   0.000000
  119       45.845397   0.000000
  120       46.370284   0.000000
  121       46.673994   0.000000
  122       46.869319   0.000000
  123       47.225077   0.000000
  124       47.451903   0.000000
  125       47.746822   0.000000
  126       47.895841   0.000000
  127       48.045501   0.000000
  128       48.263083   0.000000
 
  0.4000000E+00  0.2000000E+00  0.0000000E+00  0.4800000E-01
    1      -55.440518   1.000000
    2      -55.440493   1.000000
    3      -29.734372   1.000000
    4      -29.734082   1.000000
    5      -29.570668   1.000000
    6      -29.570449   1.000000
    7      -29.535098   1.000000
    8      -29.534747   1.000000
    9       -6.657861   1.000000
   10       -6.642025   1.000000
   11       -6.544079   1.000000
   12       -6.529037   1.000000
   13        0.161476   1.000000
   14        0.226090   1.000000
   15        0.226318   1.000000
   16        0.247725   1.000000
   17        1.421593   1.000000
   18        1.574122   1.000000
   19        2.242311   1.000000
   20        2.387175   1.000000
   21        2.653780   1.000000
   22        2.724993   1.000000
   23        3.406696   1.000000
   24        3.538084   1.000000
   25        5.121768   1.000000
   26        5.178647   1.000000
   27        7.422904   0.000000
   28        7.461030   0.000000
   29        8.555343   0.000000
   30        8.556688   0.000000
   31        8.575924   0.000000
   32        8.882517   0.000000
   33        9.765842   0.000000
   34       10.117913   0.000000
   35       12.003429   0.000000
   36       12.137318   0.000000
   37       13.748733   0.000000
   38       14.391221   0.000000
   39       14.529941   0.000000
   40       15.198235   0.000000
   41       15.279098   0.000000
   42       15.463841   0.000000
   43       15.707125   0.000000
   44       15.805946   0.000000
   45       16.402547   0.000000
   46       17.163908   0.000000
   47       17.703063   0.000000
   48       18.661363   0.000000
   49       18.922208   0.000000
   50       19.585345   0.000000
   51       19.625561   0.000000
   52       19.637581   0.000000
   53       20.840168   0.000000
   54       21.026177   0.000000
   55       21.145041   0.000000
   56       21.666258   0.000000
   57       22.450973   0.000000
   58       24.158733   0.000000
   59       24.240249   0.000000
   60       24.250190   0.000000
   61       24.363228   0.000000
   62       24.803942   0.000000
   63       25.628103   0.000000
   64       25.869710   0.000000
   65       26.768234   0.000000
   66       27.473026   0.000000
   67       27.601983   0.000000
   68       28.196744   0.000000
   69       28.669773   0.000000
   70       28.716950   0.000000
   71       28.737158   0.000000
   72       29.437612   0.000000
   73       30.128112   0.000000
   74       30.207490   0.000000
   75       30.553604   0.000000
   76       30.749312   0.000000
   77       31.190155   0.000000
   78       31.642958   0.000000
   79       31.932663   0.000000
   80       31.949908   0.000000
   81       32.070533   0.000000
   82       33.336915   0.000000
   83       33.821474   0.000000
   84       33.920429   0.000000
   85       33.963855   0.000000
   86       34.721809   0.000000
   87       34.991599   0.000000
   88       35.114480   0.000000
   89       35.408656   0.000000
   90       35.839905   0.000000
   91       35.980032   0.000000
   92       36.228865   0.000000
   93       36.284486   0.000000
   94       36.997445   0.000000
   95       37.066949   0.000000
   96       37.552123   0.000000
   97       38.049359   0.000000
   98       38.342342   0.000000
   99       38.839467   0.000000
  100       39.564727   0.000000
  101       39.575404   0.000000
  102       39.809549   0.000000
  103       40.901007   0.000000
  104       41.165174   0.000000
  105       41.376452   0.000000
  106       41.390690   0.000000
  107       41.578376   0.000000
  108       42.519157   0.000000
  109       42.588364   0.000000
  110       43.163356   0.000000
  111       43.299178   0.000000
  112       43.487341   0.000000
  113       43.494777   0.000000
  114       43.824527   0.000000
  115       43.884555   0.000000
  116       44.065031   0.000000
  117       44.300019   0.000000
  118       44.927377   0.000000
  119       45.412284   0.000000
  120       45.491743   0.000000
  121       45.695822   0.000000
  122       45.770460   0.000000
  123       45.905687   0.000000
  124       46.104390   0.000000
  125       46.703188   0.000000
  126       46.843528   0.000000
  127       47.653318   0.000000
  128       48.050944   0.000000
 
  0.0000000E+00  0.0000000E+00  0.2000000E+00  0.1600000E-01
    1      -55.481739   1.000000
    2      -55.481548   1.000000
    3      -29.616762   1.000000
    4      -29.616531   1.000000
    5      -29.404862   1.000000
    6      -29.404830   1.000000
    7      -29.404659   1.000000
    8      -29.404627   1.000000
    9       -8.708064   1.000000
   10       -8.657557   1.000000
   11       -7.432972   1.000000
   12       -7.344799   1.000000
   13       -0.361039   1.000000
   14       -0.055431   1.000000
   15        2.812571   1.000000
   16        2.812734   1.000000
   17        2.814268   1.000000
   18        2.814430   1.000000
   19        3.195263   1.000000
   20        3.913982   1.000000
   21        3.914002   1.000000
   22        3.920528   1.000000
   23        3.920548   1.000000
   24        4.041031   1.000000
   25        5.208094   1.000000
   26        5.703400   1.000000
   27        8.164719   0.000000
   28        8.164902   0.000000
   29        8.169790   0.000000
   30        8.169974   0.000000
   31        8.395835   0.000000
   32        8.395919   0.000000
   33        8.424213   0.000000
   34        8.424297   0.000000
   35       11.461928   0.000000
   36       11.653978   0.000000
   37       13.116659   0.000000
   38       13.600622   0.000000
   39       14.369970   0.000000
   40       14.496869   0.000000
   41       16.116688   0.000000
   42       16.117204   0.000000
   43       16.212220   0.000000
   44       16.212751   0.000000
   45       17.540558   0.000000
   46       18.056899   0.000000
   47       18.057323   0.000000
   48       18.264317   0.000000
   49       18.264758   0.000000
   50       18.352820   0.000000
   51       19.776893   0.000000
   52       21.211571   0.000000
   53       21.252372   0.000000
   54       21.252726   0.000000
   55       21.429026   0.000000
   56       21.429210   0.000000
   57       21.503441   0.000000
   58       21.503879   0.000000
   59       21.668854   0.000000
   60       21.737052   0.000000
   61       21.906315   0.000000
   62       21.906491   0.000000
   63       23.586333   0.000000
   64       24.563240   0.000000
   65       25.057741   0.000000
   66       25.304853   0.000000
   67       26.280788   0.000000
   68       27.863397   0.000000
   69       27.863408   0.000000
   70       28.734333   0.000000
   71       28.964007   0.000000
   72       28.964089   0.000000
   73       30.101068   0.000000
   74       30.101135   0.000000
   75       30.473352   0.000000
   76       30.473598   0.000000
   77       31.007153   0.000000
   78       31.158056   0.000000
   79       32.109584   0.000000
   80       32.109667   0.000000
   81       32.148426   0.000000
   82       32.475062   0.000000
   83       33.057144   0.000000
   84       33.057469   0.000000
   85       33.395482   0.000000
   86       33.664784   0.000000
   87       34.917346   0.000000
   88       34.917389   0.000000
   89       34.992853   0.000000
   90       34.992993   0.000000
   91       36.629475   0.000000
   92       36.934880   0.000000
   93       36.935321   0.000000
   94       37.703261   0.000000
   95       37.703564   0.000000
   96       37.721972   0.000000
   97       38.395834   0.000000
   98       38.395870   0.000000
   99       38.592921   0.000000
  100       38.923087   0.000000
  101       38.924196   0.000000
  102       39.904731   0.000000
  103       40.575016   0.000000
  104       40.580059   0.000000
  105       40.581651   0.000000
  106       40.914022   0.000000
  107       41.192772   0.000000
  108       41.203302   0.000000
  109       41.966312   0.000000
  110       41.969450   0.000000
  111       43.010302   0.000000
  112       43.012688   0.000000
  113       43.454593   0.000000
  114       43.475230   0.000000
  115       43.477071   0.000000
  116       43.788545   0.000000
  117       45.191778   0.000000
  118       45.840794   0.000000
  119       46.714485   0.000000
  120       46.714903   0.000000
  121       46.735294   0.000000
  122       46.737474   0.000000
  123       47.268332   0.000000
  124       47.270010   0.000000
  125       47.827483   0.000000
  126       48.822119   0.000000
  127       48.823995   0.000000
  128       50.154909   0.000000
 
  0.2000000E+00 -0.1387779E-16  0.2000000E+00  0.9600000E-01
    1      -55.468319   1.000000
    2      -55.468245   1.000000
    3      -29.590714   1.000000
    4      -29.590377   1.000000
    5      -29.535090   1.000000
    6      -29.534979   1.000000
    7      -29.434503   1.000000
    8      -29.434383   1.000000
    9       -8.153078   1.000000
   10       -8.105407   1.000000
   11       -7.195553   1.000000
   12       -7.123426   1.000000
   13        0.186904   1.000000
   14        0.461074   1.000000
   15        1.826366   1.000000
   16        1.854699   1.000000
   17        2.102542   1.000000
   18        2.348477   1.000000
   19        3.188658   1.000000
   20        3.198563   1.000000
   21        3.375545   1.000000
   22        3.382874   1.000000
   23        4.078557   1.000000
   24        4.428150   1.000000
   25        4.896247   1.000000
   26        5.022225   1.000000
   27        7.443134   0.000000
   28        7.792069   0.000000
   29        7.890615   0.000000
   30        7.931854   0.000000
   31        8.038020   0.000000
   32        8.214943   0.000000
   33        8.914848   0.000000
   34        8.950703   0.000000
   35       12.886917   0.000000
   36       13.457721   0.000000
   37       13.967020   0.000000
   38       14.244177   0.000000
   39       14.971835   0.000000
   40       15.093381   0.000000
   41       15.184388   0.000000
   42       15.353315   0.000000
   43       16.861351   0.000000
   44       17.106183   0.000000
   45       17.402340   0.000000
   46       17.741668   0.000000
   47       17.774263   0.000000
   48       17.811782   0.000000
   49       18.372927   0.000000
   50       18.731058   0.000000
   51       18.918247   0.000000
   52       19.149966   0.000000
   53       19.585583   0.000000
   54       19.744838   0.000000
   55       20.395460   0.000000
   56       20.767844   0.000000
   57       22.139689   0.000000
   58       22.329966   0.000000
   59       22.394329   0.000000
   60       22.816595   0.000000
   61       24.969261   0.000000
   62       25.019282   0.000000
   63       25.316030   0.000000
   64       25.588758   0.000000
   65       26.265761   0.000000
   66       26.475671   0.000000
   67       26.666698   0.000000
   68       27.666616   0.000000
   69       27.736521   0.000000
   70       27.937386   0.000000
   71       28.543152   0.000000
   72       28.546979   0.000000
   73       28.768129   0.000000
   74       29.430356   0.000000
   75       29.657889   0.000000
   76       29.875675   0.000000
   77       30.426449   0.000000
   78       31.297610   0.000000
   79       31.987051   0.000000
   80       32.529505   0.000000
   81       32.908316   0.000000
   82       32.913516   0.000000
   83       33.355300   0.000000
   84       33.637227   0.000000
   85       33.980349   0.000000
   86       34.887195   0.000000
   87       35.272663   0.000000
   88       35.621514   0.000000
   89       35.715186   0.000000
   90       36.058441   0.000000
   91       36.273971   0.000000
   92       36.470727   0.000000
   93       36.632020   0.000000
   94       36.834455   0.000000
   95       37.530752   0.000000
   96       37.756772   0.000000
   97       37.873041   0.000000
   98       38.391158   0.000000
   99       38.580176   0.000000
  100       38.694736   0.000000
  101       39.034744   0.000000
  102       39.419150   0.000000
  103       39.454278   0.000000
  104       39.465180   0.000000
  105       39.693610   0.000000
  106       39.864671   0.000000
  107       41.516159   0.000000
  108       41.910219   0.000000
  109       42.431372   0.000000
  110       42.888839   0.000000
  111       43.217722   0.000000
  112       43.484144   0.000000
  113       43.752061   0.000000
  114       44.282551   0.000000
  115       44.441952   0.000000
  116       44.523664   0.000000
  117       44.846644   0.000000
  118       45.441424   0.000000
  119       45.562918   0.000000
  120       46.286607   0.000000
  121       46.671839   0.000000