Automatically generated mesh
      15
Reciprocal lattice
    0.00000000000000    0.00000000000000    0.00000000000000             1
    0.20000000000000   -0.00000000000000    0.00000000000000             6
    0.40000000000000   -0.00000000000000    0.00000000000000             6
    0.20000000000000    0.20000000000000    0.00000000000000             6
    0.40000000000000    0.20000000000000    0.00000000000000             6
    0.00000000000000    0.00000000000000    0.20000000000000             2
    0.20000000000000   -0.00000000000000    0.20000000000000            12
    0.40000000000000   -0.00000000000000    0.20000000000000            12
    0.20000000000000    0.20000000000000    0.20000000000000            12
    0.40000000000000    0.20000000000000    0.20000000000000            12
    0.00000000000000    0.00000000000000    0.40000000000000             2
    0.20000000000000   -0.00000000000000    0.40000000000000            12
    0.40000000000000   -0.00000000000000    0.40000000000000            12
    0.20000000000000    0.20000000000000    0.40000000000000            12
    0.40000000000000    0.20000000000000    0.40000000000000            12
