2H-MoS2                                 
   1.00000000000000     
     3.179268   -0.000000    0.000000
    -1.589634    2.753326    0.000000
     0.000000    0.000000   13.745283
   Mo   S 
     2     4
Direct
  0.666667  0.333333  0.250000
  0.333333  0.666667  0.750000
  0.333333  0.666667  0.136084
  0.666667  0.333333  0.636084
  0.333333  0.666667  0.363916
  0.666667  0.333333  0.863916
 
   28   28  128
 0.75773119636E+01 0.75634297652E+01 0.76816055099E+01 0.78805627220E+01 0.79623156250E+01
 0.79998881046E+01 0.79742295521E+01 0.77759443308E+01 0.74217053857E+01 0.71053609689E+01
 0.69075794344E+01 0.67713973335E+01 0.66765964138E+01 0.66088249493E+01 0.65853065404E+01
 0.66088017625E+01 0.66765745536E+01 0.67713621704E+01 0.69075342805E+01 0.71052291464E+01
 0.74212935865E+01 0.77752351414E+01 0.79734335309E+01 0.79992723293E+01 0.79620372213E+01
 0.78806646033E+01 0.76819144802E+01 0.75635110502E+01 0.75658046958E+01 0.75662504914E+01
 0.76336098178E+01 0.78884000700E+01 0.80848946184E+01 0.80839640401E+01 0.80405633979E+01
 0.79912350333E+01 0.78634143671E+01 0.76005636760E+01 0.73176121568E+01 0.71465155644E+01
 0.70597110629E+01 0.70261085819E+01 0.70191434319E+01 0.70336533824E+01 0.70664032666E+01
 0.71158494169E+01 0.71684422433E+01 0.72305939167E+01 0.73578601405E+01 0.76244087624E+01
 0.79753001965E+01 0.81952177020E+01 0.82051188652E+01 0.80721330589E+01 0.78489249706E+01
 0.76317427651E+01 0.76595146336E+01 0.76290708126E+01 0.76690868972E+01 0.78215659315E+01
 0.81507887350E+01 0.83399545089E+01 0.82688502158E+01 0.82053608121E+01 0.82149337969E+01
 0.82065326688E+01 0.80967577112E+01 0.79060390758E+01 0.77719926733E+01 0.77289601265E+01
 0.77292056791E+01 0.77554475016E+01 0.78111238629E+01 0.78870213342E+01 0.79526828778E+01
 0.79617182734E+01 0.79295735667E+01 0.79062188382E+01 0.80022777960E+01 0.82404667953E+01
 0.84314875835E+01 0.83871100897E+01 0.81541576373E+01 0.78676743519E+01 0.79108478220E+01
 0.78316552806E+01 0.78995743837E+01 0.78992382731E+01 0.80608833166E+01 0.84366085517E+01
 0.85064774818E+01 0.83520861488E+01 0.82647529162E+01 0.82403339379E+01 0.82524232042E+01
 0.82508365598E+01 0.82146340214E+01 0.81005604636E+01 0.79799711390E+01 0.79125008220E+01
 0.78951094698E+01 0.79330678907E+01 0.80391668177E+01 0.81909537924E+01 0.83249403158E+01
 0.83864394679E+01 0.83534335732E+01 0.83317971706E+01 0.84713270009E+01 0.85254145965E+01
 0.83267347585E+01 0.81077899010E+01 0.80909178178E+01 0.80945537841E+01 0.81639318614E+01
 0.81171579052E+01 0.80319467092E+01 0.82858754220E+01 0.85776192626E+01 0.86037004024E+01
 0.84833139697E+01 0.82331749430E+01 0.79325356683E+01 0.77856923458E+01 0.77726357682E+01
 0.76366077328E+01 0.74774088606E+01 0.73945131651E+01 0.73557177864E+01 0.73375175872E+01
 0.73055926787E+01 0.73868998779E+01 0.76818136098E+01 0.80079212890E+01 0.82591885052E+01
 0.83800381909E+01 0.84800670266E+01 0.85902733658E+01 0.83469678913E+01 0.81026200116E+01
 0.79829632546E+01 0.82316149259E+01 0.83814504401E+01 0.82931174272E+01 0.80145471442E+01
 0.79984759247E+01 0.82314353004E+01 0.83450868030E+01 0.85700586269E+01 0.85805769564E+01
 0.80525748047E+01 0.75201556382E+01 0.72154898485E+01 0.69420651164E+01 0.67757113851E+01
 0.66580538927E+01 0.66374794155E+01 0.67223605930E+01 0.67331155024E+01 0.67070650393E+01
 0.68058831355E+01 0.72496045029E+01 0.77013391613E+01 0.80289367670E+01 0.82857040666E+01
 0.85492302361E+01 0.83732712170E+01 0.79383258006E+01 0.77006320807E+01 0.80917383466E+01
 0.85344822775E+01 0.85207396827E+01 0.82237558330E+01 0.78974645614E+01 0.78319728209E+01
 0.78830243851E+01 0.79492580050E+01 0.84638066554E+01 0.84147497773E+01 0.77164386768E+01
 0.70885937735E+01 0.66865756824E+01 0.65300292599E+01 0.63681887305E+01 0.62508177132E+01
 0.63748485941E+01 0.65088017918E+01 0.65106376890E+01 0.64693183979E+01 0.66560623857E+01
 0.71639628577E+01 0.76642716296E+01 0.79620056645E+01 0.83251874113E+01 0.83519752772E+01
 0.78257922979E+01 0.74688629366E+01 0.78080487955E+01 0.84187490364E+01 0.87042505077E+01
 0.84670192928E+01 0.82753656992E+01 0.79361050856E+01 0.76217835156E+01 0.74802085792E+01
 0.77665920233E+01 0.83163137109E+01 0.80571967289E+01 0.73187797294E+01 0.67167700243E+01
 0.65801762489E+01 0.64384424711E+01 0.62228842192E+01 0.62214797009E+01 0.64125878047E+01
 0.65151622652E+01 0.64738727183E+01 0.65116926945E+01 0.67823212416E+01 0.74133183862E+01
 0.78140587838E+01 0.80686661247E+01 0.82084941360E+01 0.77804432749E+01 0.73387039025E+01
 0.75709872004E+01 0.81318420473E+01 0.86469000370E+01 0.84552149506E+01 0.83365133461E+01
 0.83860077247E+01 0.79509537301E+01 0.73979440729E+01 0.72849196239E+01 0.78144405441E+01
 0.81979502055E+01 0.76993535626E+01 0.69078676100E+01 0.66115436448E+01 0.65860681411E+01
 0.64142465159E+01 0.62611161414E+01 0.63281716493E+01 0.64661366511E+01 0.64028110668E+01
 0.63844391390E+01 0.65731412683E+01 0.71057535887E+01 0.78303387634E+01 0.79615753672E+01
 0.79814610029E+01 0.76815704539E+01 0.72234043915E+01 0.74483175581E+01 0.79011720842E+01
 0.84339023227E+01 0.84237042120E+01 0.80758157039E+01 0.82050176012E+01 0.83687559415E+01
 0.77508697384E+01 0.71672261798E+01 0.72635644419E+01 0.79329110183E+01 0.81026522873E+01
 0.73581625833E+01 0.67478301255E+01 0.65556162053E+01 0.65342736391E+01 0.64276617422E+01
 0.63994313560E+01 0.64757205241E+01 0.64066259797E+01 0.62258865906E+01 0.63407392480E+01
 0.68319352562E+01 0.77075246693E+01 0.80063297607E+01 0.77871111079E+01 0.74715821842E+01
 0.70518532993E+01 0.73707998293E+01 0.78373745828E+01 0.81968429004E+01 0.83041334891E+01
 0.79968134633E+01 0.78185325051E+01 0.81052934745E+01 0.81131729447E+01 0.74451848664E+01
 0.69625081470E+01 0.72341133535E+01 0.79926348025E+01 0.79996069091E+01 0.72283715585E+01
 0.66708285667E+01 0.64591203505E+01 0.64107778002E+01 0.64368123947E+01 0.65536851087E+01
 0.65340545055E+01 0.62754261163E+01 0.61677713291E+01 0.65843710548E+01 0.75195333074E+01
 0.80595676992E+01 0.77043725395E+01 0.72470957625E+01 0.68560213003E+01 0.72707904363E+01
 0.78569850554E+01 0.80221923494E+01 0.80447448725E+01 0.78213437495E+01 0.76411030891E+01
 0.77631375684E+01 0.80811165429E+01 0.78112927062E+01 0.71897899335E+01 0.68162234345E+01
 0.71562995414E+01 0.79631150801E+01 0.79350163769E+01 0.72507799630E+01 0.66056596763E+01
 0.63211435819E+01 0.62735594644E+01 0.64357027564E+01 0.66060770468E+01 0.64832042911E+01
 0.62685377337E+01 0.64828049729E+01 0.73723296799E+01 0.80764235427E+01 0.77112635724E+01
 0.70787509235E+01 0.66925011096E+01 0.71434204273E+01 0.78726565558E+01 0.79955227190E+01
 0.77387480995E+01 0.74549826915E+01 0.72487182557E+01 0.73437885683E+01 0.78250221122E+01
 0.80978391580E+01 0.76574850623E+01 0.70441973009E+01 0.66889901335E+01 0.70689316202E+01
 0.78730845541E+01 0.79535646935E+01 0.73385607381E+01 0.65853624852E+01 0.62284521227E+01
 0.62112331492E+01 0.64035789754E+01 0.65144031349E+01 0.64152761057E+01 0.65646420735E+01
 0.73051464774E+01 0.80732348937E+01 0.77421446860E+01 0.69893538318E+01 0.65959060782E+01
 0.70262401390E+01 0.78698389470E+01 0.80094467514E+01 0.74640721589E+01 0.69616004856E+01
 0.67499236276E+01 0.67140281332E+01 0.69960283723E+01 0.77313388299E+01 0.81004300874E+01
 0.76401523931E+01 0.69872023453E+01 0.66044715840E+01 0.70027047462E+01 0.77724014709E+01
 0.80056909720E+01 0.74626824654E+01 0.66499567536E+01 0.62780193461E+01 0.62729048702E+01
 0.64139368689E+01 0.64802395721E+01 0.66662458489E+01 0.73185137165E+01 0.80549448686E+01
 0.77855805685E+01 0.69483577765E+01 0.65620951175E+01 0.69616684310E+01 0.78302458389E+01
 0.80279925165E+01 0.73429425704E+01 0.67565537612E+01 0.65207207412E+01 0.64406745836E+01
 0.64487087686E+01 0.67937612092E+01 0.75988967188E+01 0.80569651602E+01 0.76900508596E+01
 0.69740353858E+01 0.65761729916E+01 0.69739588231E+01 0.76901707104E+01 0.80575442133E+01
 0.75992181859E+01 0.67935648364E+01 0.64484922698E+01 0.64404657784E+01 0.65205708850E+01
 0.67565436308E+01 0.73430195438E+01 0.80278536066E+01 0.78300576320E+01 0.69616320067E+01
 0.65959232793E+01 0.69483863282E+01 0.77857780312E+01 0.80551293247E+01 0.73183650141E+01
 0.66660571762E+01 0.64801764780E+01 0.64140150819E+01 0.62730423733E+01 0.62781653397E+01
 0.66501212126E+01 0.74623675853E+01 0.80050747165E+01 0.77722699257E+01 0.70027760896E+01
 0.66044413172E+01 0.69871368043E+01 0.76402859883E+01 0.81010053969E+01 0.77316591260E+01
 0.69958505022E+01 0.67137501085E+01 0.67496570066E+01 0.69614260054E+01 0.74639998053E+01
 0.80092905397E+01 0.78696555099E+01 0.70261948004E+01 0.66925209525E+01 0.69893674225E+01
 0.77423294138E+01 0.80734977430E+01 0.73050472165E+01 0.65643738065E+01 0.64150154348E+01
 0.65142559524E+01 0.64036636508E+01 0.62113785797E+01 0.62285752740E+01 0.65854938342E+01
 0.73382636940E+01 0.79529006755E+01 0.78729302705E+01 0.70689837866E+01 0.66889347768E+01
 0.70441473644E+01 0.76576784714E+01 0.80984182272E+01 0.78253437268E+01 0.73436900234E+01
 0.72484694324E+01 0.74547247404E+01 0.77385517325E+01 0.79952994657E+01 0.78724628931E+01
 0.71433633442E+01 0.68560363938E+01 0.70787478013E+01 0.77114016405E+01 0.80767317937E+01
 0.73723565293E+01 0.64826154877E+01 0.62682621885E+01 0.64829154083E+01 0.66059656019E+01
 0.64358522157E+01 0.62737364384E+01 0.63212545625E+01 0.66057775984E+01 0.72504951782E+01
 0.79343418779E+01 0.79629320217E+01 0.71563366419E+01 0.68161349256E+01 0.71897658650E+01
 0.78115712964E+01 0.80817128425E+01 0.77634256771E+01 0.76411177187E+01 0.78212056494E+01
 0.80445870357E+01 0.80219730124E+01 0.78567894466E+01 0.72707459320E+01 0.70519233228E+01
 0.72470681165E+01 0.77044297812E+01 0.80598391920E+01 0.75196896842E+01 0.65843510606E+01
 0.61676881613E+01 0.62751861994E+01 0.65338184528E+01 0.65536592144E+01 0.64370057891E+01
 0.64109394357E+01 0.64592380764E+01 0.66709455228E+01 0.72280981511E+01 0.79989590091E+01
 0.79924367968E+01 0.72341217027E+01 0.69624160868E+01 0.74451935479E+01 0.81135251728E+01
 0.81058814519E+01 0.78188592008E+01 0.79969894084E+01 0.83042300931E+01 0.81968173658E+01
 0.78372574240E+01 0.73708250019E+01 0.72236472959E+01 0.74716009540E+01 0.77870718080E+01
 0.80064685630E+01 0.77076971371E+01 0.68319952196E+01 0.63408673677E+01 0.62258984901E+01
 0.64064326957E+01 0.64755103225E+01 0.63994034540E+01 0.64278100488E+01 0.65343870090E+01
 0.65557862802E+01 0.67479561126E+01 0.73578991747E+01 0.81020570403E+01 0.79327070094E+01
 0.72635298852E+01 0.71672092109E+01 0.77509476633E+01 0.83691199192E+01 0.82055728478E+01
 0.80762123263E+01 0.84240960615E+01 0.84342038039E+01 0.79013062076E+01 0.74484551223E+01
 0.73391078550E+01 0.76818086116E+01 0.79813936528E+01 0.79615559873E+01 0.78303940253E+01
 0.71057830130E+01 0.65732560455E+01 0.63846515109E+01 0.64028609043E+01 0.64659511213E+01
 0.63279214492E+01 0.62610280175E+01 0.64143056859E+01 0.65861859292E+01 0.66117876068E+01
 0.69079978043E+01 0.76990674934E+01 0.81974116644E+01 0.78141979179E+01 0.72848499254E+01
 0.73980448308E+01 0.79510773007E+01 0.83863008292E+01 0.83370366478E+01 0.84557262377E+01
 0.86474972999E+01 0.81322911229E+01 0.75713478375E+01 0.74694126219E+01 0.77809055806E+01
 0.82086060628E+01 0.80685445628E+01 0.78139660281E+01 0.74132260234E+01 0.67823189400E+01
 0.65118371105E+01 0.64740747275E+01 0.65151699999E+01 0.64123760736E+01 0.62211939823E+01
 0.62227799232E+01 0.64384996030E+01 0.65803908768E+01 0.67170487473E+01 0.73188878156E+01
 0.80568870477E+01 0.83157945799E+01 0.77662935981E+01 0.74801515469E+01 0.76219672834E+01
 0.79361928011E+01 0.82755819793E+01 0.84675046054E+01 0.87048702907E+01 0.84194168747E+01
 0.78086188692E+01 0.77012571326E+01 0.78263915485E+01 0.83523268810E+01 0.83251719747E+01
 0.79618408127E+01 0.76640826702E+01 0.71638399378E+01 0.66560400997E+01 0.64694270424E+01
 0.65107287124E+01 0.65087226161E+01 0.63746024317E+01 0.62505767350E+01 0.63681446613E+01
 0.65301865221E+01 0.66868539377E+01 0.70888558882E+01 0.77164949876E+01 0.84143364381E+01
 0.84632612719E+01 0.79489074094E+01 0.78829936177E+01 0.78321155847E+01 0.78974804479E+01
 0.82239384111E+01 0.85211782280E+01 0.85350560903E+01 0.80923858556E+01 0.79835719164E+01
 0.79389598007E+01 0.83738109514E+01 0.85494452350E+01 0.82856325928E+01 0.80287285786E+01
 0.77011464573E+01 0.72495294655E+01 0.68058942591E+01 0.67071211587E+01 0.67330953835E+01
 0.67221754845E+01 0.66372162362E+01 0.66578676071E+01 0.67757149337E+01 0.69422481988E+01
 0.72157343716E+01 0.75203351377E+01 0.80524774862E+01 0.85800717553E+01 0.85694846211E+01
 0.83447447497E+01 0.82314006294E+01 0.79984891804E+01 0.80144923017E+01 0.82932919354E+01
 0.83817379445E+01 0.82320444124E+01 0.80912510549E+01 0.81032230218E+01 0.83475961309E+01
 0.85907172835E+01 0.84802288272E+01 0.83800148667E+01 0.82590338858E+01 0.80078011783E+01
 0.76818644422E+01 0.73870626941E+01 0.73057504873E+01 0.73375786897E+01 0.73556422397E+01
 0.73943854986E+01 0.74773396717E+01 0.76366658216E+01 0.77728030325E+01 0.77858278303E+01
 0.79324976009E+01 0.82328550837E+01 0.84827433944E+01 0.86031537254E+01 0.85773785183E+01
 0.82858706422E+01 0.80318428408E+01 0.81170665568E+01 0.81639504008E+01 0.80945891055E+01
 0.79107274356E+01 0.81081323315E+01 0.83273920673E+01 0.85260245796E+01 0.84717174739E+01
 0.83319946739E+01 0.83535011343E+01 0.83864074241E+01 0.83249181163E+01 0.81910966166E+01
 0.80394527528E+01 0.79333775555E+01 0.78953742697E+01 0.79126894940E+01 0.79801226227E+01
 0.81007426589E+01 0.82148495268E+01 0.82510122503E+01 0.82524120408E+01 0.82400723698E+01
 0.82642750339E+01 0.83515051313E+01 0.85060295344E+01 0.84365549161E+01 0.80609706462E+01
 0.78991458106E+01 0.78994334620E+01 0.78314287303E+01 0.76592034271E+01 0.78675271943E+01
 0.81545252215E+01 0.83877854524E+01 0.84321247513E+01 0.82409145326E+01 0.80025123471E+01
 0.79062939642E+01 0.79295761074E+01 0.79616989374E+01 0.79527416801E+01 0.78871723212E+01
 0.78113057031E+01 0.77556406244E+01 0.77293907313E+01 0.77291400221E+01 0.77722057885E+01
 0.79062303172E+01 0.80967969221E+01 0.82063174090E+01 0.82144869272E+01 0.82048102924E+01
 0.82683051922E+01 0.83396489038E+01 0.81509021680E+01 0.78217469351E+01 0.76690601932E+01
 0.76289171033E+01 0.75657306220E+01 0.76314518661E+01 0.78487717054E+01 0.80724452489E+01
 0.82057628671E+01 0.81959511776E+01 0.79759023797E+01 0.76247430149E+01 0.73579569818E+01
 0.72306192057E+01 0.71684357170E+01 0.71158466549E+01 0.70664301326E+01 0.70336831857E+01
 0.70191722044E+01 0.70261456231E+01 0.70597543961E+01 0.71465850625E+01 0.73176029557E+01
 0.76003006369E+01 0.78628752417E+01 0.79905768402E+01 0.80399761486E+01 0.80835590926E+01
 0.80847945636E+01 0.78886424685E+01 0.76337939532E+01 0.75662443887E+01 0.78673614806E+01
 0.79783935234E+01 0.82986464666E+01 0.85373691203E+01 0.85920137425E+01 0.86219327090E+01
 0.85876398269E+01 0.83860308372E+01 0.80974674579E+01 0.78493338243E+01 0.77385546934E+01
 0.77641132619E+01 0.78075476808E+01 0.78522767655E+01 0.78750900652E+01 0.78851338426E+01
 0.78686519547E+01 0.78302029682E+01 0.77890990381E+01 0.78357969162E+01 0.80183272341E+01
 0.83165775611E+01 0.85494748310E+01 0.86334272156E+01 0.86370110614E+01 0.85598481120E+01
 0.83011983278E+01 0.79789344115E+01 0.79768808358E+01 0.79797515818E+01 0.80481816861E+01
 0.81563209643E+01 0.81770318961E+01 0.80677687304E+01 0.79984560423E+01 0.80098027281E+01
 0.79403567904E+01 0.77219182394E+01 0.74414412683E+01 0.72039734160E+01 0.70778629048E+01
 0.70150534983E+01 0.70065622736E+01 0.70415057255E+01 0.71170815365E+01 0.72184180456E+01
 0.72997044720E+01 0.73499575874E+01 0.74395969316E+01 0.76330186755E+01 0.79226129220E+01
 0.81515997213E+01 0.82124105299E+01 0.81963076802E+01 0.81388951590E+01 0.80515381630E+01
 0.82696522082E+01 0.83238016846E+01 0.82987399797E+01 0.81263990559E+01 0.79680610604E+01
 0.78719137025E+01 0.76909418659E+01 0.75061302966E+01 0.74438665658E+01 0.74138847089E+01
 0.72838272619E+01 0.70835703725E+01 0.68647842115E+01 0.67006123343E+01 0.65999151883E+01
 0.65715945946E+01 0.66175218034E+01 0.67260357557E+01 0.68816972656E+01 0.70458876522E+01
 0.71625125104E+01 0.72781762718E+01 0.74415884556E+01 0.76636924674E+01 0.78384822748E+01
 0.78789281306E+01 0.79813058564E+01 0.81520013803E+01 0.85681095857E+01 0.87687843793E+01
 0.87787495226E+01 0.85899437614E+01 0.82281760970E+01 0.79013001025E+01 0.76994007968E+01
 0.75742440716E+01 0.75246170372E+01 0.74741242089E+01 0.74442388529E+01 0.73747542801E+01
 0.72648731715E+01 0.71216336171E+01 0.70060058769E+01 0.69360275250E+01 0.69374941427E+01
 0.70168102604E+01 0.71398593763E+01 0.72782087660E+01 0.74379072550E+01 0.75005560702E+01
 0.74693020748E+01 0.75150669466E+01 0.76236517237E+01 0.76892146153E+01 0.78401686796E+01
 0.82218131810E+01 0.86508546679E+01 0.89658808620E+01 0.89655256505E+01 0.88354168919E+01
 0.86818618559E+01 0.83419317723E+01 0.79312564575E+01 0.76315301623E+01 0.76737816634E+01
 0.78302464724E+01 0.78372432690E+01 0.78487627890E+01 0.78961040371E+01 0.79253832368E+01
 0.77867745378E+01 0.76381505204E+01 0.75556173488E+01 0.75442999361E+01 0.76109508155E+01
 0.77501544994E+01 0.79121725315E+01 0.80806281522E+01 0.80429265302E+01 0.78201338205E+01
 0.77276668557E+01 0.76380435347E+01 0.77318178130E+01 0.81569060867E+01 0.84637754971E+01
 0.88426467806E+01 0.88959671412E+01 0.86419919428E+01 0.85898264600E+01 0.85682608357E+01
 0.82495830027E+01 0.78367142836E+01 0.76410149787E+01 0.79596915135E+01 0.82087366925E+01
 0.80816760106E+01 0.81403004788E+01 0.82637223162E+01 0.81579428836E+01 0.79879799686E+01
 0.79230404130E+01 0.79274165215E+01 0.79242014277E+01 0.78917035998E+01 0.80207881948E+01
 0.82267640185E+01 0.83294258470E+01 0.81289617093E+01 0.78707240027E+01 0.77100977642E+01
 0.76813616551E+01 0.80261650104E+01 0.82397075363E+01 0.85160115035E+01 0.86636192002E+01
 0.84270046491E+01 0.83084958055E+01 0.84902330791E+01 0.83468154831E+01 0.78283750092E+01
 0.75317894209E+01 0.76029240080E+01 0.81641237058E+01 0.83737923436E+01 0.82336172858E+01
 0.82398638923E+01 0.79521287863E+01 0.75675382618E+01 0.73454032116E+01 0.74203656479E+01
 0.76189592569E+01 0.77468345379E+01 0.78655695896E+01 0.81720882143E+01 0.83741800144E+01
 0.81754626963E+01 0.78221820151E+01 0.76270759038E+01 0.76263364857E+01 0.79219112878E+01
 0.81465363470E+01 0.81905464663E+01 0.83099982667E+01 0.81195583145E+01 0.78733333615E+01
 0.81301096890E+01 0.85819658441E+01 0.81400804362E+01 0.74290330196E+01 0.72122378532E+01
 0.75197297514E+01 0.80777703668E+01 0.82844031731E+01 0.82751551788E+01 0.79298813172E+01
 0.73114564089E+01 0.67283818459E+01 0.65567938733E+01 0.67716176596E+01 0.70684343908E+01
 0.73451649989E+01 0.78309231916E+01 0.84061228943E+01 0.83454913032E+01 0.77455391567E+01
 0.74130797980E+01 0.74396668404E+01 0.78355405136E+01 0.81470928515E+01 0.80156919192E+01
 0.79069190497E+01 0.77866867156E+01 0.74954549104E+01 0.74375469046E+01 0.80298156855E+01
 0.85807058478E+01 0.80146681466E+01 0.72819697689E+01 0.70464796458E+01 0.73607746330E+01
 0.78778786179E+01 0.81167087360E+01 0.80600013135E+01 0.74770525005E+01 0.67020554992E+01
 0.61628140859E+01 0.61395570680E+01 0.63790775955E+01 0.67253230707E+01 0.72256645582E+01
 0.80582068571E+01 0.84660600390E+01 0.78205671048E+01 0.72264909801E+01 0.71758152121E+01
 0.76768901735E+01 0.81272761198E+01 0.79990623164E+01 0.75989670416E+01 0.74176536445E+01
 0.72107389721E+01 0.69886262635E+01 0.71320066035E+01 0.78781719127E+01 0.83788815713E+01
 0.79614728433E+01 0.73125482847E+01 0.69534531032E+01 0.72333076682E+01 0.76900000704E+01
 0.78927983075E+01 0.77895775195E+01 0.70781751868E+01 0.63373526184E+01 0.60340288257E+01
 0.61155390634E+01 0.63259757026E+01 0.67545426304E+01 0.75091471776E+01 0.82600654989E+01
 0.78914165382E+01 0.71162981193E+01 0.69539105626E+01 0.74285038081E+01 0.80248051750E+01
 0.80641835530E+01 0.74282296246E+01 0.70706098250E+01 0.69943336872E+01 0.67826862557E+01
 0.66737866185E+01 0.69352071343E+01 0.76465268354E+01 0.80951445876E+01 0.79359563510E+01
 0.73458405184E+01 0.68470163574E+01 0.71330919177E+01 0.75445963698E+01 0.77788415696E+01
 0.75145532919E+01 0.67849806775E+01 0.62427714566E+01 0.62132252251E+01 0.63787814119E+01
 0.66521025799E+01 0.71881411819E+01 0.79349334001E+01 0.78320774227E+01 0.70644511394E+01
 0.67946784559E+01 0.72028410965E+01 0.78881154155E+01 0.81152057432E+01 0.73671944889E+01
 0.68195371762E+01 0.67469151912E+01 0.67327367159E+01 0.65582850895E+01 0.65475357104E+01
 0.68421303454E+01 0.74191649491E+01 0.78833397269E+01 0.79131239330E+01 0.72985748147E+01
 0.67297230892E+01 0.70431883053E+01 0.75234271431E+01 0.77897492632E+01 0.73292286727E+01
 0.66456429763E+01 0.63833847632E+01 0.65470631190E+01 0.68634364592E+01 0.72278625639E+01
 0.77713044806E+01 0.77349897246E+01 0.70390558723E+01 0.66876804026E+01 0.70815452602E+01
 0.77930719589E+01 0.80965900355E+01 0.73868903871E+01 0.66230845908E+01 0.64801903673E+01
 0.65947749831E+01 0.65843752739E+01 0.64684532142E+01 0.64784795448E+01 0.67453372773E+01
 0.73142629626E+01 0.77893126000E+01 0.78884747400E+01 0.71798380236E+01 0.66448107221E+01
 0.69727707344E+01 0.76219170353E+01 0.78998804803E+01 0.72911321348E+01 0.67355481760E+01
 0.67299209193E+01 0.70783259956E+01 0.74758601744E+01 0.77695415640E+01 0.76763979079E+01
 0.70171517675E+01 0.66409101096E+01 0.70308986440E+01 0.77492934352E+01 0.80487938710E+01
 0.73875013558E+01 0.65318139843E+01 0.63589802518E+01 0.65111038069E+01 0.65408690424E+01
 0.65066292435E+01 0.65237326995E+01 0.65143124533E+01 0.66878383839E+01 0.72905256682E+01
 0.78304688448E+01 0.78511910792E+01 0.70766961610E+01 0.66013324441E+01 0.69734910660E+01
 0.77679471730E+01 0.80851695467E+01 0.74643353620E+01 0.71026346219E+01 0.72882678874E+01
 0.77080664893E+01 0.78741321159E+01 0.76511536191E+01 0.70176348468E+01 0.66293310039E+01
 0.70368300093E+01 0.77456218397E+01 0.79945362107E+01 0.73770776651E+01 0.65450781842E+01
 0.63349135480E+01 0.63848720908E+01 0.63577858971E+01 0.62568965746E+01 0.63078272618E+01
 0.64713426418E+01 0.64871703484E+01 0.66366199609E+01 0.72932882069E+01 0.79318388815E+01
 0.78138090913E+01 0.70018670436E+01 0.66178177799E+01 0.70218354806E+01 0.79004291555E+01
 0.82654350124E+01 0.78542026059E+01 0.77183994429E+01 0.79426026774E+01 0.80036227089E+01
 0.76608963580E+01 0.70469349500E+01 0.66520368298E+01 0.70749530101E+01 0.77816074826E+01
 0.79391198440E+01 0.73771293541E+01 0.65620937878E+01 0.63159165411E+01 0.63122050298E+01
 0.62633523733E+01 0.61185193429E+01 0.60308547344E+01 0.61591426087E+01 0.63883303846E+01
 0.64128024221E+01 0.65731282971E+01 0.73076205680E+01 0.80467041382E+01 0.77816621022E+01
 0.69713355401E+01 0.66825386124E+01 0.70907330281E+01 0.79439169106E+01 0.83698880820E+01
 0.83122725608E+01 0.83601141189E+01 0.82446003327E+01 0.77194987455E+01 0.70802426949E+01
 0.67153022193E+01 0.71358063252E+01 0.78489264238E+01 0.78946047541E+01 0.73599709879E+01
 0.65878621225E+01 0.63272508583E+01 0.62620550124E+01 0.62193503883E+01 0.60901773908E+01
 0.59576986707E+01 0.59445358240E+01 0.61183074089E+01 0.63146572960E+01 0.63206218109E+01
 0.65083046400E+01 0.73363980672E+01 0.81490961219E+01 0.77696529550E+01 0.70192124644E+01
 0.68119404047E+01 0.71772414678E+01 0.78616896943E+01 0.82860995275E+01 0.84939398894E+01
 0.84404476555E+01 0.78101514566E+01 0.71451676690E+01 0.68038620041E+01 0.72198939833E+01
 0.79487173641E+01 0.78951639058E+01 0.73246527732E+01 0.66140993595E+01 0.63600995897E+01
 0.62470751138E+01 0.61168678980E+01 0.60274114236E+01 0.58852720256E+01 0.58293191082E+01
 0.59427896665E+01 0.61610074345E+01 0.62801094954E+01 0.62613295840E+01 0.64742211295E+01
 0.74062878759E+01 0.81970040710E+01 0.77919300363E+01 0.71635938083E+01 0.70338900784E+01
 0.72802152499E+01 0.77491920535E+01 0.81464599307E+01 0.84113292657E+01 0.79987841355E+01
 0.72878243031E+01 0.69040027637E+01 0.73020698301E+01 0.80533266014E+01 0.79743069766E+01
 0.72898188464E+01 0.66404047092E+01 0.64401623929E+01 0.63254912808E+01 0.60815192355E+01
 0.59445862675E+01 0.58253525892E+01 0.57449652166E+01 0.57608705437E+01 0.59975790771E+01
 0.62213982976E+01 0.62898175254E+01 0.62515929497E+01 0.65158723383E+01 0.74774919062E+01
 0.81624893720E+01 0.78557468020E+01 0.74778709582E+01 0.72976276745E+01 0.74263789001E+01
 0.77083848581E+01 0.80434526861E+01 0.80348887507E+01 0.74695073574E+01 0.70559285157E+01
 0.73438089964E+01 0.81047515191E+01 0.81303880232E+01 0.73288831986E+01 0.66823304297E+01
 0.64901893391E+01 0.64887232247E+01 0.61805215603E+01 0.59522212671E+01 0.58001043518E+01
 0.57005626514E+01 0.56793230182E+01 0.58041353447E+01 0.60872434872E+01 0.63110573741E+01
 0.63404156478E+01 0.63302927124E+01 0.66490189374E+01 0.75098642846E+01 0.79792784999E+01
 0.79933195013E+01 0.78472922146E+01 0.75036900065E+01 0.75093475835E+01 0.77505959464E+01
 0.78705204593E+01 0.76333929171E+01 0.72938950997E+01 0.73855608951E+01 0.80753157386E+01
 0.82960003996E+01 0.74938534312E+01 0.67843573875E+01 0.64785756887E+01 0.65916372430E+01
 0.64046937422E+01 0.60921271865E+01 0.59555376435E+01 0.58201414789E+01 0.57291432723E+01
 0.57320435017E+01 0.59432824505E+01 0.61954552471E+01 0.64127189105E+01 0.64470102481E+01
 0.64838359365E+01 0.68933050147E+01 0.75190085907E+01 0.77954016962E+01 0.81639571270E+01
 0.80459705953E+01 0.75471946060E+01 0.76035989216E+01 0.77622816421E+01 0.77372202712E+01
 0.76053140950E+01 0.75337386426E+01 0.80611298173E+01 0.83731286740E+01 0.77601237844E+01
 0.69469577657E+01 0.65996772878E+01 0.65255484645E+01 0.65453372175E+01 0.63024473478E+01
 0.61368877841E+01 0.60798582525E+01 0.59944152150E+01 0.58957517337E+01 0.59421983014E+01
 0.61276985515E+01 0.63425993929E+01 0.64976306292E+01 0.65215293917E+01 0.67814165896E+01
 0.71487941048E+01 0.75615984535E+01 0.78306427132E+01 0.83085958582E+01 0.80173137538E+01
 0.75122556664E+01 0.76670886636E+01 0.76953910482E+01 0.78633807885E+01 0.78324793460E+01
 0.81870108891E+01 0.83976719767E+01 0.80336539490E+01 0.72584401365E+01 0.67885410062E+01
 0.65935002046E+01 0.65325815492E+01 0.64484407580E+01 0.63220878597E+01 0.62810159338E+01
 0.62680342139E+01 0.61898794856E+01 0.61500934716E+01 0.61948433873E+01 0.63550508165E+01
 0.64598972289E+01 0.64789500243E+01 0.66928195396E+01 0.70503301908E+01 0.74560046034E+01
 0.77905889887E+01 0.81441262503E+01 0.84354774666E+01 0.79349238758E+01 0.76342508089E+01
 0.76812973300E+01 0.78799720402E+01 0.81735620437E+01 0.84781531265E+01 0.84696264878E+01
 0.82773226660E+01 0.76350847932E+01 0.71175653261E+01 0.68171808694E+01 0.66519827300E+01
 0.64741194462E+01 0.63856705074E+01 0.63200752690E+01 0.63561991031E+01 0.63474423160E+01
 0.63359408982E+01 0.63465651967E+01 0.64400972125E+01 0.64701434658E+01 0.63950438682E+01
 0.65258816736E+01 0.68429575563E+01 0.72887247648E+01 0.77869010637E+01 0.81960699244E+01
 0.86124344169E+01 0.85290033176E+01 0.80326292722E+01 0.78358868115E+01 0.78607136533E+01
 0.83093011494E+01 0.86865970744E+01 0.86815433202E+01 0.85057826286E+01 0.80152475199E+01
 0.75202182811E+01 0.71494059377E+01 0.69337793875E+01 0.67219829728E+01 0.64765273213E+01
 0.63516581971E+01 0.63046531016E+01 0.63031951398E+01 0.63216354214E+01 0.63483625998E+01
 0.64288194561E+01 0.64733744170E+01 0.64755157778E+01 0.65714696129E+01 0.67257554458E+01
 0.70545211701E+01 0.75275805654E+01 0.80726343641E+01 0.86433437448E+01 0.89370556044E+01
 0.86002360879E+01 0.81976724137E+01 0.79822747675E+01 0.82511398378E+01 0.85978856681E+01
 0.88846300202E+01 0.87609529768E+01 0.84049342102E+01 0.79313896534E+01 0.75841098341E+01
 0.73353108580E+01 0.71542000857E+01 0.69521664184E+01 0.67211273807E+01 0.65614202023E+01
 0.64984503452E+01 0.64948120635E+01 0.65215935520E+01 0.65682664058E+01 0.66447327618E+01
 0.67790170960E+01 0.69262626288E+01 0.70212493404E+01 0.71832733903E+01 0.74375384383E+01
 0.78358586756E+01 0.83764554877E+01 0.89147519996E+01 0.89679019404E+01 0.85475232469E+01
 0.81691507889E+01 0.81356503826E+01 0.82806509302E+01 0.87681260488E+01 0.89672316675E+01
 0.88007773470E+01 0.84398039486E+01 0.80552772680E+01 0.78003166946E+01 0.76799673689E+01
 0.76532974530E+01 0.76060682901E+01 0.74950919263E+01 0.73742353310E+01 0.72705950736E+01
 0.72353292348E+01 0.72480310369E+01 0.73170236379E+01 0.74268813612E+01 0.75567725028E+01
 0.77175607909E+01 0.78400046501E+01 0.79059258641E+01 0.80216756393E+01 0.82695972663E+01
 0.86709742412E+01 0.89569643191E+01 0.87465853633E+01 0.82826657289E+01 0.80421094376E+01
 0.79778124994E+01 0.83307432333E+01 0.87606802813E+01 0.89119366889E+01 0.88491133702E+01
 0.86378907392E+01 0.83217007129E+01 0.80421600463E+01 0.79083868880E+01 0.79523428726E+01
 0.80645429666E+01 0.81048288741E+01 0.80895770711E+01 0.80428943073E+01 0.79927330711E+01
 0.79359473907E+01 0.78925187231E+01 0.79080407097E+01 0.80189925605E+01 0.82086163999E+01
 0.84138530527E+01 0.85279578807E+01 0.85910699813E+01 0.86928406822E+01 0.88304999470E+01
 0.87742642881E+01 0.83363305174E+01 0.79768411768E+01 0.85657660140E+01 0.86998601257E+01
 0.88963541241E+01 0.88638929517E+01 0.86487931125E+01 0.84311396190E+01 0.81877247918E+01
 0.78739761193E+01 0.75166219980E+01 0.73140498043E+01 0.72617674488E+01 0.72684162205E+01
 0.72980519959E+01 0.72840393172E+01 0.72524651755E+01 0.72215972093E+01 0.71812909471E+01
 0.71719099377E+01 0.72240004694E+01 0.73821883993E+01 0.76488375608E+01 0.79506493550E+01
 0.82354300112E+01 0.84457699244E+01 0.86535829150E+01 0.88626612459E+01 0.88992127956E+01
 0.86998725385E+01 0.86887148431E+01 0.86968422562E+01 0.87173087810E+01 0.87317836293E+01
 0.86950825454E+01 0.86285865967E+01 0.85772992511E+01 0.85430812380E+01 0.84733974271E+01
 0.82453027626E+01 0.80080617445E+01 0.78907431871E+01 0.78660403640E+01 0.79307355116E+01
 0.80066889396E+01 0.80588268236E+01 0.80960317968E+01 0.80749919263E+01 0.80185919308E+01
 0.79455656042E+01 0.79434259706E+01 0.81064879461E+01 0.83668415611E+01 0.86280511667E+01
 0.87658004952E+01 0.87831901231E+01 0.87511687905E+01 0.87098417753E+01 0.88823383032E+01