       N       E                     dE             d eps       ncg     rms          rms(c)
DIA:   1    -0.452002361214E+02   -0.45200E+02    0.00000E+00     0   0.000E+00    0.527E-01
DIA:   2    -0.451983550984E+02    0.18810E-02    0.00000E+00     0   0.000E+00    0.295E-01
DIA:   3    -0.451965324990E+02    0.18226E-02    0.00000E+00     0   0.000E+00    0.154E-01
DIA:   4    -0.451964502649E+02    0.82234E-04    0.00000E+00     0   0.000E+00
   1 F= -.45196450E+02 E0= -.45196450E+02  d E =-.145536E-11
 imaginary and real dielectric function
