 vasp.5.4.4.18Apr17-6-g9f103f2a35 (build Nov 26 2018 16:29:41) complex          
  
 executed on             LinuxIFC date 2019.07.02  14:08:03
 running on   32 total cores
 distrk:  each k-point on   32 cores,    1 groups
 distr:  one band on NCORES_PER_BAND=   8 cores,    4 groups


--------------------------------------------------------------------------------------------------------


 INCAR:
 POTCAR:    PAW_PBE Mo_sv_GW 05Dec2013            
 POTCAR:    PAW_PBE S_GW 19Mar2012                
 POTCAR:    PAW_PBE Mo_sv_GW 05Dec2013            
   VRHFIN =Mo: 4s4p5s4d                                                         
   LEXCH  = PE                                                                  
   EATOM  =  1861.5185 eV,  136.8178 Ry                                         
                                                                                
   TITEL  = PAW_PBE Mo_sv_GW 05Dec2013                                          
   LULTRA =        F    use ultrasoft PP ?                                      
   IUNSCR =        1    unscreen: 0-lin 1-nonlin 2-no                           
   RPACOR =    2.000    partial core radius                                     
   POMASS =   95.940; ZVAL   =   14.000    mass and valenz                      
   RCORE  =    2.100    outmost cutoff radius                                   
   RWIGS  =    2.100; RWIGS  =    1.111    wigner-seitz radius (au A)           
   ENMAX  =  344.914; ENMIN  =  258.686 eV                                      
   RCLOC  =    1.508    cutoff for local pot                                    
   LCOR   =        T    correct aug charges                                     
   LPAW   =        T    paw PP                                                  
   EAUG   =  964.741                                                            
   DEXC   =    0.000                                                            
   RMAX   =    2.149    core radius for proj-oper                               
   RAUG   =    1.300    factor for augmentation sphere                          
   RDEP   =    2.179    radius for radial grids                                 
   RDEPT  =    1.677    core radius for aug-charge                              
                                                                                
   Atomic configuration                                                         
   12 entries                                                                   
     n  l   j            E        occ.                                          
     1  0  0.50    -19816.9363   2.0000                                         
     2  0  0.50     -2796.7578   2.0000                                         
     2  1  1.50     -2499.7842   6.0000                                         
     3  0  0.50      -474.2095   2.0000                                         
     3  1  1.50      -376.9135   6.0000                                         
     3  2  2.50      -218.6898  10.0000                                         
     4  0  0.50       -62.1983   2.0000                                         
     4  0  0.50       -66.6685   0.0000                                         
     4  1  1.50       -36.4414   6.0000                                         
     4  1  1.50       -40.8175   0.0000                                         
     4  2  2.50        -2.3086   6.0000                                         
     4  3  2.50        -1.3606   0.0000                                         
   Description                                                                  
     l       E           TYP  RCUT    TYP  RCUT                                 
     0    -62.1983072     23  1.950                                             
     0     27.2116520     23  1.950                                             
     0    149.6640860     23  1.950                                             
     1    -36.4413666     23  1.800                                             
     1    -40.8174780     23  1.800                                             
     1     54.4233040     23  1.800                                             
     2     -2.3085597     23  2.000                                             
     2     -6.8029130     23  2.000                                             
     2    136.0582600     23  2.000                                             
     3     13.6058260     23  2.100                                             
     3     81.6349560     23  2.100                                             
  local pseudopotential read in
  partial core-charges read in
  partial kinetic energy density read in
  kinetic energy density of atom read in
  atomic valenz-charges read in
  non local Contribution for L=           0  read in
    real space projection operators read in
  non local Contribution for L=           0  read in
    real space projection operators read in
  non local Contribution for L=           0  read in
    real space projection operators read in
  non local Contribution for L=           1  read in
    real space projection operators read in
  non local Contribution for L=           1  read in
    real space projection operators read in
  non local Contribution for L=           1  read in
    real space projection operators read in
  non local Contribution for L=           2  read in
    real space projection operators read in
  non local Contribution for L=           2  read in
    real space projection operators read in
  non local Contribution for L=           2  read in
    real space projection operators read in
  non local Contribution for L=           3  read in
    real space projection operators read in
  non local Contribution for L=           3  read in
    real space projection operators read in
    PAW grid and wavefunctions read in
 
   number of l-projection  operators is LMAX  =          11
   number of lm-projection operators is LMMAX =          41
 
 POTCAR:    PAW_PBE S_GW 19Mar2012                
   VRHFIN =S : s2p4                                                             
   LEXCH  = PE                                                                  
   EATOM  =   276.8230 eV,   20.3459 Ry                                         
                                                                                
   TITEL  = PAW_PBE S_GW 19Mar2012                                              
   LULTRA =        F    use ultrasoft PP ?                                      
   IUNSCR =        1    unscreen: 0-lin 1-nonlin 2-no                           
   RPACOR =    1.400    partial core radius                                     
   POMASS =   32.066; ZVAL   =    6.000    mass and valenz                      
   RCORE  =    1.900    outmost cutoff radius                                   
   RWIGS  =    1.900; RWIGS  =    1.005    wigner-seitz radius (au A)           
   ENMAX  =  258.689; ENMIN  =  194.016 eV                                      
   ICORE  =        3    local potential                                         
   LCOR   =        T    correct aug charges                                     
   LPAW   =        T    paw PP                                                  
   EAUG   =  488.319                                                            
   DEXC   =    0.000                                                            
   RMAX   =    1.942    core radius for proj-oper                               
   RAUG   =    1.300    factor for augmentation sphere                          
   RDEP   =    1.954    radius for radial grids                                 
   RDEPT  =    1.900    core radius for aug-charge                              
                                                                                
   Atomic configuration                                                         
    7 entries                                                                   
     n  l   j            E        occ.                                          
     1  0  0.50     -2405.8406   2.0000                                         
     2  0  0.50      -211.7007   2.0000                                         
     2  1  1.50      -156.4958   6.0000                                         
     3  0  0.50       -17.2562   2.0000                                         
     3  1  0.50        -7.0085   4.0000                                         
     3  2  1.50        -8.1635   0.0000                                         
     4  3  2.50        -1.3606   0.0000                                         
   Description                                                                  
     l       E           TYP  RCUT    TYP  RCUT                                 
     0    -17.2561639     23  1.700                                             
     0     88.4378690     23  1.900                                             
     1     -7.0085399     23  1.900                                             
     1     88.4378690     23  1.900                                             
     2    -10.8846608     23  1.900                                             
     2     54.4233040     23  1.900                                             
     3     27.2116520     23  1.800                                             
  local pseudopotential read in
  partial core-charges read in
  partial kinetic energy density read in
  kinetic energy density of atom read in
  atomic valenz-charges read in
  non local Contribution for L=           0  read in
    real space projection operators read in
  non local Contribution for L=           0  read in
    real space projection operators read in
  non local Contribution for L=           1  read in
    real space projection operators read in
  non local Contribution for L=           1  read in
    real space projection operators read in
  non local Contribution for L=           2  read in
    real space projection operators read in
  non local Contribution for L=           2  read in
    real space projection operators read in
    PAW grid and wavefunctions read in
 
   number of l-projection  operators is LMAX  =           6
   number of lm-projection operators is LMMAX =          18
 
  PAW_PBE Mo_sv_GW 05Dec2013            :
 energy of atom  1       EATOM=-1861.5185
 kinetic energy error for atom=    0.1105 (will be added to EATOM!!)
  PAW_PBE S_GW 19Mar2012                :
 energy of atom  2       EATOM= -276.8230
 kinetic energy error for atom=    0.0058 (will be added to EATOM!!)
 
 
 POSCAR: MoS2 (bulk, 2 f.u.)                     
  positions in direct lattice
  velocities in cartesian coordinates
 exchange correlation table for  LEXCH =        8
   RHO(1)=    0.500       N(1)  =     2000
   RHO(2)=  100.500       N(2)  =     4000
 


--------------------------------------------------------------------------------------------------------


 ion  position               nearest neighbor table
   1  0.667  0.333  0.250-   3 2.41   5 2.41   3 2.41   5 2.41   3 2.41   5 2.41
   2  0.333  0.667  0.750-   4 2.41   6 2.41   4 2.41   6 2.41   4 2.41   6 2.41
   3  0.333  0.667  0.136-   1 2.41   1 2.41   1 2.41
   4  0.667  0.333  0.636-   2 2.41   2 2.41   2 2.41
   5  0.333  0.667  0.364-   1 2.41   1 2.41   1 2.41
   6  0.667  0.333  0.864-   2 2.41   2 2.41   2 2.41
 
  LATTYP: Found a hexagonal cell.
 ALAT       =     3.1792672181
 C/A-ratio  =     4.3234122164
  
  Lattice vectors:
  
 A1 = (   3.1792678194,  -0.0000000000,   0.0000000000)
 A2 = (  -1.5896339097,   2.7533260027,   0.0000000000)
 A3 = (   0.0000000000,   0.0000000000,  13.7452827299)


Analysis of symmetry for initial positions (statically):
=====================================================================
 Subroutine PRICEL returns:
 Original cell was already a primitive cell.
 

 Routine SETGRP: Setting up the symmetry group for a 
 hexagonal supercell.


 Subroutine GETGRP returns: Found 24 space group operations
 (whereof 12 operations were pure point group operations)
 out of a pool of 24 trial point group operations.


The static configuration has the point symmetry D_3d.
 The point group associated with its full space group is D_6h.


Analysis of symmetry for dynamics (positions and initial velocities):
=====================================================================
 Subroutine PRICEL returns:
 Original cell was already a primitive cell.
 

 Routine SETGRP: Setting up the symmetry group for a 
 hexagonal supercell.


 Subroutine GETGRP returns: Found 24 space group operations
 (whereof 12 operations were pure point group operations)
 out of a pool of 24 trial point group operations.


The dynamic configuration has the point symmetry D_3d.
 The point group associated with its full space group is D_6h.


 Subroutine INISYM returns: Found 24 space group operations
 (whereof 12 operations are pure point group operations),
 and found     1 'primitive' translations

 
 
 KPOINTS: MoS2 kpoints                            

Automatic generation of k-mesh.
Space group operators:
 irot       det(A)        alpha          n_x          n_y          n_z        tau_x        tau_y        tau_z
    1     1.000000     0.000000     1.000000     0.000000     0.000000     0.000000     0.000000     0.000000
    2    -1.000000     0.000000     1.000000     0.000000     0.000000     0.000000     0.000000     0.000000
    3     1.000000   120.000000     0.000000     0.000000    -1.000000     0.000000     0.000000     0.000000
    4    -1.000000   120.000000     0.000000     0.000000    -1.000000     0.000000     0.000000     0.000000
    5     1.000000   120.000000     0.000000     0.000000     1.000000     0.000000     0.000000     0.000000
    6    -1.000000   120.000000     0.000000     0.000000     1.000000     0.000000     0.000000     0.000000
    7     1.000000   180.000000     1.000000     0.000000     0.000000     0.000000     0.000000     0.000000
    8    -1.000000   180.000000     1.000000     0.000000     0.000000     0.000000     0.000000     0.000000
    9     1.000000   180.000000     0.500000    -0.866025     0.000000     0.000000     0.000000     0.000000
   10    -1.000000   180.000000     0.500000    -0.866025     0.000000     0.000000     0.000000     0.000000
   11     1.000000   180.000000    -0.500000    -0.866025     0.000000     0.000000     0.000000     0.000000
   12    -1.000000   180.000000    -0.500000    -0.866025     0.000000     0.000000     0.000000     0.000000
   13     1.000000    60.000000     0.000000     0.000000    -1.000000     0.000001    -0.000000     0.500000
   14    -1.000000    60.000000     0.000000     0.000000    -1.000000     0.000001     0.000000     0.500000
   15     1.000000   180.000000     0.000000     0.000000     1.000000     0.000000     0.000000     0.500000
   16    -1.000000   180.000000     0.000000     0.000000     1.000000     0.000000     0.000000     0.500000
   17     1.000000    60.000000     0.000000     0.000000     1.000000     0.000000     0.000000     0.500000
   18    -1.000000    60.000000     0.000000     0.000000     1.000000     0.000000     0.000000     0.500000
   19     1.000000   180.000000     0.866025    -0.500000     0.000000     0.000000     0.000000     0.500000
   20    -1.000000   180.000000     0.866025    -0.500000     0.000000     0.000000     0.000000     0.500000
   21     1.000000   180.000000     0.000000     1.000000     0.000000     0.000001    -0.000000     0.500000
   22    -1.000000   180.000000     0.000000     1.000000     0.000000     0.000001     0.000000     0.500000
   23     1.000000   180.000000     0.866025     0.500000     0.000000     0.000000     0.000000     0.500000
   24    -1.000000   180.000000     0.866025     0.500000     0.000000     0.000000     0.000000     0.500000
 
 Subroutine IBZKPT returns following result:
 ===========================================
 
 Found     15 irreducible k-points:
 
 Following reciprocal coordinates:
            Coordinates               Weight
  0.000000  0.000000  0.000000      1.000000
  0.200000 -0.000000  0.000000      6.000000
  0.400000 -0.000000  0.000000      6.000000
  0.200000  0.200000  0.000000      6.000000
  0.400000  0.200000  0.000000      6.000000
  0.000000  0.000000  0.200000      2.000000
  0.200000 -0.000000  0.200000     12.000000
  0.400000 -0.000000  0.200000     12.000000
  0.200000  0.200000  0.200000     12.000000
  0.400000  0.200000  0.200000     12.000000
  0.000000  0.000000  0.400000      2.000000
  0.200000 -0.000000  0.400000     12.000000
  0.400000 -0.000000  0.400000     12.000000
  0.200000  0.200000  0.400000     12.000000
  0.400000  0.200000  0.400000     12.000000
 
 Following cartesian coordinates:
            Coordinates               Weight
  0.000000  0.000000  0.000000      1.000000
  0.062908  0.036320  0.000000      6.000000
  0.125815  0.072639  0.000000      6.000000
  0.062908  0.108959  0.000000      6.000000
  0.125815  0.145279  0.000000      6.000000
  0.000000  0.000000  0.014550      2.000000
  0.062908  0.036320  0.014550     12.000000
  0.125815  0.072639  0.014550     12.000000
  0.062908  0.108959  0.014550     12.000000
  0.125815  0.145279  0.014550     12.000000
  0.000000  0.000000  0.029101      2.000000
  0.062908  0.036320  0.029101     12.000000
  0.125815  0.072639  0.029101     12.000000
  0.062908  0.108959  0.029101     12.000000
  0.125815  0.145279  0.029101     12.000000
 


--------------------------------------------------------------------------------------------------------




 Dimension of arrays:
   k-points           NKPTS =     15   k-points in BZ     NKDIM =     15   number of bands    NBANDS=    128
   number of dos      NEDOS =   3000   number of ions     NIONS =      6
   non local maximal  LDIM  =     11   non local SUM 2l+1 LMDIM =     41
   total plane-waves  NPLWV =  12544
   max r-space proj   IRMAX =      1   max aug-charges    IRDMAX=   4179
   dimension x,y,z NGX =    14 NGY =   14 NGZ =   64
   dimension x,y,z NGXF=    28 NGYF=   28 NGZF=  128
   support grid    NGXF=    28 NGYF=   28 NGZF=  128
   ions per type =               2   4
   NGX,Y,Z   is equivalent  to a cutoff of   7.32,  7.32,  7.74 a.u.
   NGXF,Y,Z  is equivalent  to a cutoff of  14.64, 14.64, 15.48 a.u.

 SYSTEM =  2H-MoS2                                 
 POSCAR =  MoS2 (bulk, 2 f.u.)                     

 Startparameter for this run:
   NWRITE =      2    write-flag & timer
   PREC   = normal    normal or accurate (medium, high low for compatibility)
   ISTART =      1    job   : 0-new  1-cont  2-samecut
   ICHARG =      0    charge: 1-file 2-atom 10-const
   ISPIN  =      1    spin polarized calculation?
   LNONCOLLINEAR =      F non collinear calculations
   LSORBIT =      F    spin-orbit coupling
   INIWAV =      1    electr: 0-lowe 1-rand  2-diag
   LASPH  =      F    aspherical Exc in radial PAW
   METAGGA=      F    non-selfconsistent MetaGGA calc.

 Electronic Relaxation 1
   ENCUT  =  344.9 eV  25.35 Ry    5.03 a.u.   4.81  4.81 20.81*2*pi/ulx,y,z
   ENINI  =  344.9     initial cutoff
   ENAUG  =  964.7 eV  augmentation charge cutoff
   NELM   =     60;   NELMIN=  2; NELMDL=  0     # of ELM steps 
   EDIFF  = 0.1E-03   stopping-criterion for ELM
   LREAL  =      F    real-space projection
   NLSPLINE    = F    spline interpolate recip. space projectors
   LCOMPAT=      F    compatible to vasp.4.4
   GGA_COMPAT  = T    GGA compatible to vasp.4.4-vasp.4.6
   LMAXPAW     = -100 max onsite density
   LMAXMIX     =    2 max onsite mixed and CHGCAR
   VOSKOWN=      0    Vosko Wilk Nusair interpolation
   ROPT   =    0.00000   0.00000
 Ionic relaxation
   EDIFFG = 0.1E-02   stopping-criterion for IOM
   NSW    =      0    number of steps for IOM
   NBLOCK =      1;   KBLOCK =      1    inner block; outer block 
   IBRION =     -1    ionic relax: 0-MD 1-quasi-New 2-CG
   NFREE  =      0    steps in history (QN), initial steepest desc. (CG)
   ISIF   =      2    stress and relaxation
   IWAVPR =     10    prediction:  0-non 1-charg 2-wave 3-comb
   ISYM   =      2    0-nonsym 1-usesym 2-fastsym
   LCORR  =      T    Harris-Foulkes like correction to forces

   POTIM  = 0.5000    time-step for ionic-motion
   TEIN   =    0.0    initial temperature
   TEBEG  =    0.0;   TEEND  =   0.0 temperature during run
   SMASS  =  -3.00    Nose mass-parameter (am)
   estimated Nose-frequenzy (Omega)   =  0.10E-29 period in steps =****** mass=  -0.231E-27a.u.
   SCALEE = 1.0000    scale energy and forces
   NPACO  =    256;   APACO  = 16.0  distance and # of slots for P.C.
   PSTRESS=    0.0 pullay stress

  Mass of Ions in am
   POMASS =  95.94 32.07
  Ionic Valenz
   ZVAL   =  14.00  6.00
  Atomic Wigner-Seitz radii
   RWIGS  =  -1.00 -1.00
  virtual crystal weights 
   VCA    =   1.00  1.00
   NELECT =      52.0000    total number of electrons
   NUPDOWN=      -1.0000    fix difference up-down

 DOS related values:
   EMIN   =  10.00;   EMAX   =-10.00  energy-range for DOS
   EFERMI =   0.00
   ISMEAR =     0;   SIGMA  =   0.05  broadening in eV -4-tet -1-fermi 0-gaus

 Electronic relaxation 2 (details)
   IALGO  =     90    algorithm
   LDIAG  =      T    sub-space diagonalisation (order eigenvalues)
   LSUBROT=      F    optimize rotation matrix (better conditioning)
   TURBO    =      0    0=normal 1=particle mesh
   IRESTART =      0    0=no restart 2=restart with 2 vectors
   NREBOOT  =      0    no. of reboots
   NMIN     =      0    reboot dimension
   EREF     =   0.00    reference energy to select bands
   IMIX   =      4    mixing-type and parameters
     AMIX     =   0.40;   BMIX     =  1.00
     AMIX_MAG =   1.60;   BMIX_MAG =  1.00
     AMIN     =   0.10
     WC   =   100.;   INIMIX=   1;  MIXPRE=   1;  MAXMIX= -45

 Intra band minimization:
   WEIMIN = 0.0000     energy-eigenvalue tresh-hold
   EBREAK =  0.20E-06  absolut break condition
   DEPER  =   0.30     relativ break condition  

   TIME   =   0.40     timestep for ELM

  volume/ion in A,a.u.               =      20.05       135.33
  Fermi-wavevector in a.u.,A,eV,Ry     =   1.237741  2.338991 20.844166  1.532003
  Thomas-Fermi vector in A             =   2.372296
 
 Write flags
   LWAVE        =      T    write WAVECAR
   LDOWNSAMPLE  =      F    k-point downsampling of WAVECAR
   LCHARG       =      T    write CHGCAR
   LVTOT        =      T    write LOCPOT, total local potential
   LVHAR        =      F    write LOCPOT, Hartree potential only
   LELF         =      F    write electronic localiz. function (ELF)
   LORBIT       =      0    0 simple, 1 ext, 2 COOP (PROOUT), +10 PAW based schemes


 Dipole corrections
   LMONO  =      F    monopole corrections only (constant potential shift)
   LDIPOL =      F    correct potential (dipole corrections)
   IDIPOL =      0    1-x, 2-y, 3-z, 4-all directions 
   EPSILON=  1.0000000 bulk dielectric constant

 Exchange correlation treatment:
   GGA     =    --    GGA type
   LEXCH   =     8    internal setting for exchange type
   VOSKOWN=      0    Vosko Wilk Nusair interpolation
   LHFCALC =     F    Hartree Fock is set to
   LHFONE  =     F    Hartree Fock one center treatment
   AEXX    =    0.0000 exact exchange contribution

 Linear response parameters
   LEPSILON=     F    determine dielectric tensor
   LRPA    =     F    only Hartree local field effects (RPA)
   LNABLA  =     F    use nabla operator in PAW spheres
   LVEL    =     F    velocity operator in full k-point grid
   LINTERFAST=   F  fast interpolation
   KINTER  =     0    interpolate to denser k-point grid
   CSHIFT  =0.1000    complex shift for real part using Kramers Kronig
   OMEGAMAX=  -1.0    maximum frequency
   DEG_THRESHOLD= 0.2000000E-02 threshold for treating states as degnerate
   RTIME   =   -0.100 relaxation time in fs
  (WPLASMAI=    0.000 imaginary part of plasma frequency in eV, 0.658/RTIME)
   DFIELD  = 0.0000000 0.0000000 0.0000000 field for delta impulse in time
 
 Orbital magnetization related:
   ORBITALMAG=     F  switch on orbital magnetization
   LCHIMAG   =     F  perturbation theory with respect to B field
   DQ        =  0.001000  dq finite difference perturbation B field
   LLRAUG    =     F  two centre corrections for induced B field



--------------------------------------------------------------------------------------------------------


 Static calculation
 charge density and potential will be updated during run
 non-spin polarized calculation
 Exact diagonalization
 preconditioned conjugated gradient (Jacobi prec)
    charged. constant during bandupdate  
    band-by band algorithm
 perform sub-space diagonalisation
    after iterative eigenvector-optimisation
 modified Broyden-mixing scheme, WC =      100.0
 initial mixing is a Kerker type mixing with AMIX =  0.4000 and BMIX =      1.0000
 Hartree-type preconditioning will be used
 using additional bands          102
 reciprocal scheme for non local part
 use partial core corrections
 calculate Harris-corrections to forces 
   (improved forces if not selfconsistent)
 use gradient corrections 
 use of overlap-Matrix (Vanderbilt PP)
 Gauss-broadening in eV      SIGMA  =   0.05


--------------------------------------------------------------------------------------------------------


  energy-cutoff  :      344.91
  volume of cell :      120.32
      direct lattice vectors                 reciprocal lattice vectors
     3.179267819 -0.000000000  0.000000000     0.314537830  0.181598546  0.000000000
    -1.589633910  2.753326003  0.000000000     0.000000000  0.363197093  0.000000000
     0.000000000  0.000000000 13.745282730     0.000000000  0.000000000  0.072752232

  length of vectors
     3.179267819  3.179267218 13.745282730     0.363197024  0.363197093  0.072752232


 
 old parameters found on file WAVECAR:
  energy-cutoff  :      344.91
  volume of cell :      131.15
      direct lattice vectors                 reciprocal lattice vectors
     3.190316000  0.000000000  0.000000000     0.313448574  0.180969664  0.000000000
    -1.595158000  2.762894000  0.000000000     0.000000000  0.361939329  0.000000000
     0.000000000  0.000000000 14.879004000     0.000000000  0.000000000  0.067208800

  length of vectors

 
 k-points in units of 2pi/SCALE and weight: MoS2 kpoints                            
   0.00000000  0.00000000  0.00000000       0.008
   0.06290757  0.03631971  0.00000000       0.048
   0.12581513  0.07263942  0.00000000       0.048
   0.06290757  0.10895913  0.00000000       0.048
   0.12581513  0.14527884  0.00000000       0.048
   0.00000000  0.00000000  0.01455045       0.016
   0.06290757  0.03631971  0.01455045       0.096
   0.12581513  0.07263942  0.01455045       0.096
   0.06290757  0.10895913  0.01455045       0.096
   0.12581513  0.14527884  0.01455045       0.096
   0.00000000  0.00000000  0.02910089       0.016
   0.06290757  0.03631971  0.02910089       0.096
   0.12581513  0.07263942  0.02910089       0.096
   0.06290757  0.10895913  0.02910089       0.096
   0.12581513  0.14527884  0.02910089       0.096
 
 k-points in reciprocal lattice and weights: MoS2 kpoints                            
   0.00000000  0.00000000  0.00000000       0.008
   0.20000000 -0.00000000  0.00000000       0.048
   0.40000000 -0.00000000  0.00000000       0.048
   0.20000000  0.20000000  0.00000000       0.048
   0.40000000  0.20000000  0.00000000       0.048
   0.00000000  0.00000000  0.20000000       0.016
   0.20000000 -0.00000000  0.20000000       0.096
   0.40000000 -0.00000000  0.20000000       0.096
   0.20000000  0.20000000  0.20000000       0.096
   0.40000000  0.20000000  0.20000000       0.096
   0.00000000  0.00000000  0.40000000       0.016
   0.20000000 -0.00000000  0.40000000       0.096
   0.40000000 -0.00000000  0.40000000       0.096
   0.20000000  0.20000000  0.40000000       0.096
   0.40000000  0.20000000  0.40000000       0.096
 
 position of ions in fractional coordinates (direct lattice) 
   0.66666700  0.33333300  0.25000000
   0.33333300  0.66666700  0.75000000
   0.33333300  0.66666700  0.13608426
   0.66666700  0.33333300  0.63608426
   0.33333300  0.66666700  0.36391574
   0.66666700  0.33333300  0.86391574
 
 position of ions in cartesian coordinates  (Angst):
   1.58963550  0.91777442  3.43632068
  -0.00000159  1.83555159 10.30896205
  -0.00000159  1.83555159  1.87051669
   1.58963550  0.91777442  8.74315805
  -0.00000159  1.83555159  5.00212468
   1.58963550  0.91777442 11.87476604
 


--------------------------------------------------------------------------------------------------------


 k-point  1 :   0.0000 0.0000 0.0000  plane waves:    1757
 k-point  2 :   0.2000-0.0000 0.0000  plane waves:    1724
 k-point  3 :   0.4000-0.0000 0.0000  plane waves:    1756
 k-point  4 :   0.2000 0.2000 0.0000  plane waves:    1747
 k-point  5 :   0.4000 0.2000 0.0000  plane waves:    1755
 k-point  6 :   0.0000 0.0000 0.2000  plane waves:    1758
 k-point  7 :   0.2000-0.0000 0.2000  plane waves:    1737
 k-point  8 :   0.4000-0.0000 0.2000  plane waves:    1754
 k-point  9 :   0.2000 0.2000 0.2000  plane waves:    1749
 k-point 10 :   0.4000 0.2000 0.2000  plane waves:    1759
 k-point 11 :   0.0000 0.0000 0.4000  plane waves:    1746
 k-point 12 :   0.2000-0.0000 0.4000  plane waves:    1735
 k-point 13 :   0.4000-0.0000 0.4000  plane waves:    1746
 k-point 14 :   0.2000 0.2000 0.4000  plane waves:    1749
 k-point 15 :   0.4000 0.2000 0.4000  plane waves:    1772

 maximum and minimum number of plane-waves per node :       226      210

 maximum number of plane-waves:      1772
 maximum index in each direction: 
   IXMAX=    4   IYMAX=    4   IZMAX=   20
   IXMIN=   -5   IYMIN=   -5   IZMIN=  -21


 parallel 3D FFT for wavefunctions:
    minimum data exchange during FFTs selected (reduces bandwidth)
 parallel 3D FFT for charge:
    minimum data exchange during FFTs selected (reduces bandwidth)


 total amount of memory used by VASP MPI-rank0    34818. kBytes
=======================================================================

   base      :      30000. kBytes
   nonl-proj :       2225. kBytes
   fftplans  :        180. kBytes
   grid      :        275. kBytes
   one-center:         80. kBytes
   wavefun   :       2058. kBytes
 
     INWAV:  cpu time    0.5759: real time    0.5856
 Broyden mixing: mesh for mixing (old mesh)
   NGX =  9   NGY =  9   NGZ = 41
  (NGX  = 28   NGY  = 28   NGZ  =128)
  gives a total of   3321 points

 charge density for first step will be calculated from the start-wavefunctions


--------------------------------------------------------------------------------------------------------


 Maximum index for augmentation-charges           57 (set IRDMAX)


--------------------------------------------------------------------------------------------------------


 initial charge from wavefunction
 First call to EWALD:  gamma=   0.359
 Maximum number of real-space cells 5x 5x 1
 Maximum number of reciprocal cells 2x 2x 7

    FEWALD:  cpu time    0.0020: real time    0.0015


--------------------------------------- Iteration      1(   1)  ---------------------------------------


    POTLOK:  cpu time    0.0060: real time    0.0111
    SETDIJ:  cpu time    0.0040: real time    0.0038

 total amount of memory used by VASP MPI-rank0    63311. kBytes
=======================================================================

   base      :      30000. kBytes
   nonl-proj :       2225. kBytes
   fftplans  :        180. kBytes
   grid      :        275. kBytes
   one-center:         80. kBytes
   wavefun   :      30551. kBytes
 
    EDDIAG:  cpu time   23.0155: real time   23.0142
       DOS:  cpu time    0.0010: real time    0.0014
    CHARGE:  cpu time    0.0120: real time    0.0115
    MIXING:  cpu time    0.0000: real time    0.0005
    --------------------------------------------
      LOOP:  cpu time   23.0385: real time   23.0425

 eigenvalue-minimisations  :     0
 total energy-change (2. order) :-0.4520024E+02  ( 0.0000000E+00)
 number of electron      51.9999975 magnetization 
 augmentation part       -2.9726559 magnetization 

 Broyden mixing:
  rms(total) = 0.52747E-01    rms(broyden)= 0.52706E-01
  rms(prec ) = 0.61603E-01
  weight for this iteration     100.00

 Free energy of the ion-electron system (eV)
  ---------------------------------------------------
  alpha Z        PSCENC =       158.93313713
  Ewald energy   TEWEN  =     -2696.56123166
  -Hartree energ DENC   =     -1977.07790431
  -exchange      EXHF   =         0.00000000
  -V(xc)+E(xc)   XCENC  =       165.39436737
  PAW double counting   =      3848.76689613    -3810.48498500
  entropy T*S    EENTRO =        -0.00000000
  eigenvalues    EBANDS =      -564.25509379
  atomic energy  EATOM  =      4830.08457801
  Solvation  Ediel_sol  =         0.00000000
  ---------------------------------------------------
  free energy    TOTEN  =       -45.20023612 eV

  energy without entropy =      -45.20023612  energy(sigma->0) =      -45.20023612


--------------------------------------------------------------------------------------------------------




--------------------------------------- Iteration      1(   2)  ---------------------------------------


    POTLOK:  cpu time    0.0080: real time    0.0093
    SETDIJ:  cpu time    0.0040: real time    0.0035

 total amount of memory used by VASP MPI-rank0    63311. kBytes
=======================================================================

   base      :      30000. kBytes
   nonl-proj :       2225. kBytes
   fftplans  :        180. kBytes
   grid      :        275. kBytes
   one-center:         80. kBytes
   wavefun   :      30551. kBytes
 
    EDDIAG:  cpu time   23.1105: real time   23.1823
       DOS:  cpu time    0.0010: real time    0.0014
    CHARGE:  cpu time    0.0120: real time    0.0113
    MIXING:  cpu time    0.0010: real time    0.0004
    --------------------------------------------
      LOOP:  cpu time   23.1365: real time   23.2082

 eigenvalue-minimisations  :     0
 total energy-change (2. order) : 0.1881023E-02  ( 0.0000000E+00)
 number of electron      51.9999976 magnetization 
 augmentation part       -3.0027145 magnetization 

 Broyden mixing:
  rms(total) = 0.29550E-01    rms(broyden)= 0.29523E-01
  rms(prec ) = 0.38217E-01
  weight for this iteration     100.00

 eigenvalues of (default mixing * dielectric matrix)
  average eigenvalue GAMMA=   0.8181
  0.8181

 Free energy of the ion-electron system (eV)
  ---------------------------------------------------
  alpha Z        PSCENC =       158.93313713
  Ewald energy   TEWEN  =     -2696.56123166
  -Hartree energ DENC   =     -1979.88444710
  -exchange      EXHF   =         0.00000000
  -V(xc)+E(xc)   XCENC  =       165.47033684
  PAW double counting   =      3856.32493574    -3817.89235778
  entropy T*S    EENTRO =        -0.00000000
  eigenvalues    EBANDS =      -561.67330626
  atomic energy  EATOM  =      4830.08457801
  Solvation  Ediel_sol  =         0.00000000
  ---------------------------------------------------
  free energy    TOTEN  =       -45.19835510 eV

  energy without entropy =      -45.19835510  energy(sigma->0) =      -45.19835510


--------------------------------------------------------------------------------------------------------




--------------------------------------- Iteration      1(   3)  ---------------------------------------


    POTLOK:  cpu time    0.0040: real time    0.0058
    SETDIJ:  cpu time    0.0040: real time    0.0033

 total amount of memory used by VASP MPI-rank0    63311. kBytes
=======================================================================

   base      :      30000. kBytes
   nonl-proj :       2225. kBytes
   fftplans  :        180. kBytes
   grid      :        275. kBytes
   one-center:         80. kBytes
   wavefun   :      30551. kBytes
 
    EDDIAG:  cpu time   23.1395: real time   23.2073
       DOS:  cpu time    0.0010: real time    0.0014
    CHARGE:  cpu time    0.0110: real time    0.0113
    MIXING:  cpu time    0.0010: real time    0.0004
    --------------------------------------------
      LOOP:  cpu time   23.1605: real time   23.2294

 eigenvalue-minimisations  :     0
 total energy-change (2. order) : 0.1822599E-02  ( 0.0000000E+00)
 number of electron      51.9999975 magnetization 
 augmentation part       -2.9882268 magnetization 

 Broyden mixing:
  rms(total) = 0.15379E-01    rms(broyden)= 0.15351E-01
  rms(prec ) = 0.16311E-01
  weight for this iteration     100.00

 eigenvalues of (default mixing * dielectric matrix)
  average eigenvalue GAMMA=   1.3338
  2.0924  0.5751

 Free energy of the ion-electron system (eV)
  ---------------------------------------------------
  alpha Z        PSCENC =       158.93313713
  Ewald energy   TEWEN  =     -2696.56123166
  -Hartree energ DENC   =     -1978.70716474
  -exchange      EXHF   =         0.00000000
  -V(xc)+E(xc)   XCENC  =       165.45304385
  PAW double counting   =      3853.41397894    -3814.99360206
  entropy T*S    EENTRO =        -0.00000000
  eigenvalues    EBANDS =      -562.81927197
  atomic energy  EATOM  =      4830.08457801
  Solvation  Ediel_sol  =         0.00000000
  ---------------------------------------------------
  free energy    TOTEN  =       -45.19653250 eV

  energy without entropy =      -45.19653250  energy(sigma->0) =      -45.19653250


--------------------------------------------------------------------------------------------------------




--------------------------------------- Iteration      1(   4)  ---------------------------------------


    POTLOK:  cpu time    0.0030: real time    0.0058
    SETDIJ:  cpu time    0.0040: real time    0.0033

 total amount of memory used by VASP MPI-rank0    63311. kBytes
=======================================================================

   base      :      30000. kBytes
   nonl-proj :       2225. kBytes
   fftplans  :        180. kBytes
   grid      :        275. kBytes
   one-center:         80. kBytes
   wavefun   :      30551. kBytes
 
    EDDIAG:  cpu time   23.1465: real time   23.2251
       DOS:  cpu time    0.0010: real time    0.0014
    --------------------------------------------
      LOOP:  cpu time   23.1545: real time   23.2355

 eigenvalue-minimisations  :     0
 total energy-change (2. order) : 0.8223416E-04  ( 0.0000000E+00)
 number of electron      51.9999975 magnetization 
 augmentation part       -2.9882268 magnetization 

 Free energy of the ion-electron system (eV)
  ---------------------------------------------------
  alpha Z        PSCENC =       158.93313713
  Ewald energy   TEWEN  =     -2696.56123166
  -Hartree energ DENC   =     -1979.11640150
  -exchange      EXHF   =         0.00000000
  -V(xc)+E(xc)   XCENC  =       165.47068458
  PAW double counting   =      3854.13062651    -3815.65753587
  entropy T*S    EENTRO =        -0.00000000
  eigenvalues    EBANDS =      -562.48030747
  atomic energy  EATOM  =      4830.08457801
  Solvation  Ediel_sol  =         0.00000000
  ---------------------------------------------------
  free energy    TOTEN  =       -45.19645026 eV

  energy without entropy =      -45.19645026  energy(sigma->0) =      -45.19645026


--------------------------------------------------------------------------------------------------------




 average (electrostatic) potential at core
  the test charge radii are     0.8928  1.0339
  (the norm of the test charge is              1.0000)
       1-101.4010       2-101.4010       3 -89.1592       4 -89.1593       5 -89.1592
       6 -89.1593
 
 
 
 E-fermi :   5.9589     XC(G=0): -10.0217     alpha+bet :-11.5328


 k-point     1 :       0.0000    0.0000    0.0000
  band No.  band energies     occupation 
      1     -55.4817      2.00000
      2     -55.4816      2.00000
      3     -29.6170      2.00000
      4     -29.6163      2.00000
      5     -29.4047      2.00000
      6     -29.4047      2.00000
      7     -29.4047      2.00000
      8     -29.4046      2.00000
      9      -8.7137      2.00000
     10      -8.6511      2.00000
     11      -7.4437      2.00000
     12      -7.3348      2.00000
     13      -0.3931      2.00000
     14      -0.0140      2.00000
     15       2.8123      2.00000
     16       2.8125      2.00000
     17       2.8146      2.00000
     18       2.8148      2.00000
     19       3.1104      2.00000
     20       3.9130      2.00000
     21       3.9130      2.00000
     22       3.9214      2.00000
     23       3.9214      2.00000
     24       4.1915      2.00000
     25       5.0946      2.00000
     26       5.7417      2.00000
     27       8.1641      0.00000
     28       8.1643      0.00000
     29       8.1705      0.00000
     30       8.1707      0.00000
     31       8.3924      0.00000
     32       8.3924      0.00000
     33       8.4275      0.00000
     34       8.4276      0.00000
     35      11.4358      0.00000
     36      11.6732      0.00000
     37      13.0756      0.00000
     38      13.6805      0.00000
     39      14.3560      0.00000
     40      14.5152      0.00000
     41      16.1064      0.00000
     42      16.1069      0.00000
     43      16.2241      0.00000
     44      16.2246      0.00000
     45      17.4177      0.00000
     46      18.0346      0.00000
     47      18.0351      0.00000
     48      18.2923      0.00000
     49      18.2927      0.00000
     50      18.4294      0.00000
     51      19.6574      0.00000
     52      21.2401      0.00000
     53      21.2442      0.00000
     54      21.2446      0.00000
     55      21.3474      0.00000
     56      21.3476      0.00000
     57      21.5430      0.00000
     58      21.5435      0.00000
     59      21.6894      0.00000
     60      21.9544      0.00000
     61      21.9545      0.00000
     62      22.2978      0.00000
     63      23.0023      0.00000
     64      24.7996      0.00000
     65      24.8278      0.00000
     66      25.5728      0.00000
     67      25.8487      0.00000
     68      27.7508      0.00000
     69      27.7508      0.00000
     70      29.1139      0.00000
     71      29.1140      0.00000
     72      29.1763      0.00000
     73      30.0807      0.00000
     74      30.0807      0.00000
     75      30.6413      0.00000
     76      30.6417      0.00000
     77      31.2857      0.00000
     78      31.3066      0.00000
     79      31.7681      0.00000
     80      31.7682      0.00000
     81      32.1419      0.00000
     82      32.3944      0.00000
     83      32.5243      0.00000
     84      33.0168      0.00000
     85      33.0171      0.00000
     86      33.6048      0.00000
     87      35.1295      0.00000
     88      35.1295      0.00000
     89      35.2800      0.00000
     90      35.2802      0.00000
     91      36.5858      0.00000
     92      36.5862      0.00000
     93      37.5114      0.00000
     94      37.6053      0.00000
     95      37.6056      0.00000
     96      37.8472      0.00000
     97      38.3986      0.00000
     98      38.3986      0.00000
     99      38.4013      0.00000
    100      39.0961      0.00000
    101      39.0974      0.00000
    102      39.5495      0.00000
    103      40.2942      0.00000
    104      40.3790      0.00000
    105      40.3803      0.00000
    106      40.9483      0.00000
    107      41.1912      0.00000
    108      41.2025      0.00000
    109      42.1343      0.00000
    110      42.1376      0.00000
    111      42.9735      0.00000
    112      42.9759      0.00000
    113      43.5627      0.00000
    114      43.5644      0.00000
    115      43.8381      0.00000
    116      44.0080      0.00000
    117      44.9589      0.00000
    118      45.8861      0.00000
    119      46.7182      0.00000
    120      46.7183      0.00000
    121      46.7844      0.00000
    122      46.7871      0.00000
    123      47.0239      0.00000
    124      47.0252      0.00000
    125      47.4644      0.00000
    126      48.9968      0.00000
    127      48.9987      0.00000
    128      49.9968      0.00000

 k-point     2 :       0.2000   -0.0000    0.0000
  band No.  band energies     occupation 
      1     -55.4682      2.00000
      2     -55.4681      2.00000
      3     -29.5905      2.00000
      4     -29.5897      2.00000
      5     -29.5353      2.00000
      6     -29.5347      2.00000
      7     -29.4344      2.00000
      8     -29.4340      2.00000
      9      -8.1583      2.00000
     10      -8.0993      2.00000
     11      -7.2044      2.00000
     12      -7.1152      2.00000
     13       0.1591      2.00000
     14       0.5000      2.00000
     15       1.8250      2.00000
     16       1.8640      2.00000
     17       2.0589      2.00000
     18       2.3693      2.00000
     19       3.1878      2.00000
     20       3.2004      2.00000
     21       3.3747      2.00000
     22       3.3835      2.00000
     23       4.0492      2.00000
     24       4.4961      2.00000
     25       4.8592      2.00000
     26       5.0297      2.00000
     27       7.4075      0.00000
     28       7.8751      0.00000
     29       7.8861      0.00000
     30       7.9369      0.00000
     31       7.9732      0.00000
     32       8.2281      0.00000
     33       8.9106      0.00000
     34       8.9557      0.00000
     35      12.8396      0.00000
     36      13.6092      0.00000
     37      13.8543      0.00000
     38      14.2622      0.00000
     39      14.9514      0.00000
     40      15.1352      0.00000
     41      15.1379      0.00000
     42      15.3741      0.00000
     43      16.8623      0.00000
     44      17.2536      0.00000
     45      17.2646      0.00000
     46      17.7341      0.00000
     47      17.7543      0.00000
     48      17.8224      0.00000
     49      18.3419      0.00000
     50      18.7997      0.00000
     51      18.9336      0.00000
     52      19.1431      0.00000
     53      19.4833      0.00000
     54      19.6526      0.00000
     55      20.4713      0.00000
     56      20.9182      0.00000
     57      22.1020      0.00000
     58      22.2914      0.00000
     59      22.4227      0.00000
     60      22.8949      0.00000
     61      25.0190      0.00000
     62      25.0725      0.00000
     63      25.2455      0.00000
     64      25.4469      0.00000
     65      26.1105      0.00000
     66      26.4985      0.00000
     67      26.8440      0.00000
     68      27.5724      0.00000
     69      27.5999      0.00000
     70      27.7937      0.00000
     71      28.5968      0.00000
     72      28.7770      0.00000
     73      28.7966      0.00000
     74      29.4789      0.00000
     75      29.5661      0.00000
     76      29.8450      0.00000
     77      30.7883      0.00000
     78      31.7226      0.00000
     79      31.9087      0.00000
     80      32.4614      0.00000
     81      32.6808      0.00000
     82      32.8106      0.00000
     83      32.9465      0.00000
     84      33.7077      0.00000
     85      33.8336      0.00000
     86      35.0244      0.00000
     87      35.4042      0.00000
     88      35.4677      0.00000
     89      35.5686      0.00000
     90      36.0675      0.00000
     91      36.3332      0.00000
     92      36.6187      0.00000
     93      36.7065      0.00000
     94      36.9023      0.00000
     95      37.6647      0.00000
     96      37.7080      0.00000
     97      38.2913      0.00000
     98      38.4863      0.00000
     99      38.5759      0.00000
    100      38.6631      0.00000
    101      38.8156      0.00000
    102      39.2162      0.00000
    103      39.3003      0.00000
    104      39.3959      0.00000
    105      39.5860      0.00000
    106      39.7190      0.00000
    107      42.1852      0.00000
    108      42.3847      0.00000
    109      42.4566      0.00000
    110      42.6411      0.00000
    111      43.1562      0.00000
    112      43.3703      0.00000
    113      43.6889      0.00000
    114      43.9142      0.00000
    115      44.2445      0.00000
    116      44.4287      0.00000
    117      44.6752      0.00000
    118      45.4804      0.00000
    119      45.8319      0.00000
    120      46.4099      0.00000
    121      46.8551      0.00000
    122      47.0860      0.00000
    123      47.4379      0.00000
    124      47.6729      0.00000
    125      48.0533      0.00000
    126      48.3931      0.00000
    127      48.6005      0.00000
    128      49.4296      0.00000

 k-point     3 :       0.4000   -0.0000    0.0000
  band No.  band energies     occupation 
      1     -55.4472      2.00000
      2     -55.4471      2.00000
      3     -29.7425      2.00000
      4     -29.7422      2.00000
      5     -29.5485      2.00000
      6     -29.5483      2.00000
      7     -29.4829      2.00000
      8     -29.4829      2.00000
      9      -7.0558      2.00000
     10      -7.0194      2.00000
     11      -6.7418      2.00000
     12      -6.7019      2.00000
     13      -0.1768      2.00000
     14      -0.0886      2.00000
     15       0.8023      2.00000
     16       0.8980      2.00000
     17       1.3371      2.00000
     18       1.5512      2.00000
     19       2.3657      2.00000
     20       2.3810      2.00000
     21       3.5209      2.00000
     22       3.6969      2.00000
     23       4.2854      2.00000
     24       4.3197      2.00000
     25       4.4968      2.00000
     26       4.6029      2.00000
     27       7.6061      0.00000
     28       7.6296      0.00000
     29       7.8335      0.00000
     30       8.0904      0.00000
     31       8.8857      0.00000
     32       9.3430      0.00000
     33       9.5729      0.00000
     34       9.6793      0.00000
     35      12.0540      0.00000
     36      12.3331      0.00000
     37      13.1212      0.00000
     38      13.2966      0.00000
     39      13.3216      0.00000
     40      14.4736      0.00000
     41      14.5815      0.00000
     42      15.3898      0.00000
     43      15.9604      0.00000
     44      16.7695      0.00000
     45      16.8614      0.00000
     46      17.2917      0.00000
     47      18.2707      0.00000
     48      18.4555      0.00000
     49      19.4969      0.00000
     50      19.8365      0.00000
     51      20.5542      0.00000
     52      20.9237      0.00000
     53      20.9706      0.00000
     54      21.5774      0.00000
     55      21.8418      0.00000
     56      22.1747      0.00000
     57      23.0173      0.00000
     58      23.1336      0.00000
     59      23.1709      0.00000
     60      23.4134      0.00000
     61      24.2203      0.00000
     62      24.3557      0.00000
     63      24.6231      0.00000
     64      25.1096      0.00000
     65      26.0438      0.00000
     66      27.3779      0.00000
     67      27.4790      0.00000
     68      27.7202      0.00000
     69      27.8367      0.00000
     70      28.6674      0.00000
     71      29.0101      0.00000
     72      29.3471      0.00000
     73      30.3497      0.00000
     74      30.3845      0.00000
     75      30.9130      0.00000
     76      30.9988      0.00000
     77      31.1849      0.00000
     78      31.2909      0.00000
     79      31.4682      0.00000
     80      31.9248      0.00000
     81      32.2702      0.00000
     82      32.5278      0.00000
     83      32.8205      0.00000
     84      33.3190      0.00000
     85      33.4047      0.00000
     86      33.9756      0.00000
     87      34.3855      0.00000
     88      34.9263      0.00000
     89      35.7634      0.00000
     90      36.0076      0.00000
     91      36.3496      0.00000
     92      36.4742      0.00000
     93      36.8844      0.00000
     94      37.0535      0.00000
     95      37.2881      0.00000
     96      37.8994      0.00000
     97      38.1633      0.00000
     98      38.6276      0.00000
     99      39.0071      0.00000
    100      39.4425      0.00000
    101      39.5324      0.00000
    102      39.6907      0.00000
    103      39.9026      0.00000
    104      40.4507      0.00000
    105      40.7864      0.00000
    106      40.8758      0.00000
    107      42.0386      0.00000
    108      42.0854      0.00000
    109      42.6187      0.00000
    110      42.6991      0.00000
    111      42.9872      0.00000
    112      43.2554      0.00000
    113      44.0503      0.00000
    114      44.0967      0.00000
    115      44.2689      0.00000
    116      44.4530      0.00000
    117      44.5615      0.00000
    118      45.3689      0.00000
    119      45.5904      0.00000
    120      45.7349      0.00000
    121      45.7774      0.00000
    122      46.5272      0.00000
    123      46.8777      0.00000
    124      47.1034      0.00000
    125      47.5631      0.00000
    126      47.8815      0.00000
    127      48.1193      0.00000
    128      48.2389      0.00000

 k-point     4 :       0.2000    0.2000    0.0000
  band No.  band energies     occupation 
      1     -55.4512      2.00000
      2     -55.4511      2.00000
      3     -29.6704      2.00000
      4     -29.6702      2.00000
      5     -29.5564      2.00000
      6     -29.5563      2.00000
      7     -29.5079      2.00000
      8     -29.5073      2.00000
      9      -7.3045      2.00000
     10      -7.2589      2.00000
     11      -6.8334      2.00000
     12      -6.7779      2.00000
     13       0.3099      2.00000
     14       0.4325      2.00000
     15       1.1808      2.00000
     16       1.2268      2.00000
     17       1.6319      2.00000
     18       1.7675      2.00000
     19       1.9590      2.00000
     20       2.2148      2.00000
     21       3.1707      2.00000
     22       3.1784      2.00000
     23       4.1369      2.00000
     24       4.2028      2.00000
     25       4.6315      2.00000
     26       4.6338      2.00000
     27       7.1815      0.00000
     28       7.6437      0.00000
     29       7.9216      0.00000
     30       8.0200      0.00000
     31       8.1157      0.00000
     32       8.4550      0.00000
     33       9.6533      0.00000
     34       9.9478      0.00000
     35      13.4746      0.00000
     36      13.6656      0.00000
     37      13.8841      0.00000
     38      14.0610      0.00000
     39      14.6612      0.00000
     40      15.1436      0.00000
     41      15.4952      0.00000
     42      15.7348      0.00000
     43      16.4659      0.00000
     44      16.4895      0.00000
     45      16.7744      0.00000
     46      17.1067      0.00000
     47      17.6298      0.00000
     48      17.6950      0.00000
     49      17.7349      0.00000
     50      18.0107      0.00000
     51      18.3617      0.00000
     52      19.9227      0.00000
     53      20.4577      0.00000
     54      20.7191      0.00000
     55      21.3926      0.00000
     56      21.4931      0.00000
     57      22.0571      0.00000
     58      23.5329      0.00000
     59      23.7941      0.00000
     60      24.5609      0.00000
     61      25.0304      0.00000
     62      25.3089      0.00000
     63      25.4233      0.00000
     64      25.6884      0.00000
     65      26.4180      0.00000
     66      26.4479      0.00000
     67      27.8286      0.00000
     68      28.4040      0.00000
     69      28.6922      0.00000
     70      28.7081      0.00000
     71      29.1561      0.00000
     72      29.2390      0.00000
     73      29.3114      0.00000
     74      29.4495      0.00000
     75      30.3019      0.00000
     76      30.4083      0.00000
     77      30.7360      0.00000
     78      30.8194      0.00000
     79      30.9761      0.00000
     80      31.9991      0.00000
     81      32.7835      0.00000
     82      32.8830      0.00000
     83      33.4808      0.00000
     84      33.9024      0.00000
     85      34.2526      0.00000
     86      34.3289      0.00000
     87      34.6395      0.00000
     88      34.6894      0.00000
     89      35.2954      0.00000
     90      35.5648      0.00000
     91      36.1578      0.00000
     92      36.2287      0.00000
     93      36.2920      0.00000
     94      36.7829      0.00000
     95      37.2107      0.00000
     96      37.5228      0.00000
     97      37.5617      0.00000
     98      37.7932      0.00000
     99      39.0064      0.00000
    100      39.8155      0.00000
    101      39.8758      0.00000
    102      40.0691      0.00000
    103      40.2799      0.00000
    104      40.6450      0.00000
    105      40.8460      0.00000
    106      41.0425      0.00000
    107      41.7583      0.00000
    108      41.9193      0.00000
    109      42.7789      0.00000
    110      42.7800      0.00000
    111      43.0771      0.00000
    112      43.3683      0.00000
    113      43.4120      0.00000
    114      44.1472      0.00000
    115      44.1473      0.00000
    116      44.4808      0.00000
    117      44.7059      0.00000
    118      45.3629      0.00000
    119      45.8454      0.00000
    120      46.3703      0.00000
    121      46.6740      0.00000
    122      46.8693      0.00000
    123      47.2251      0.00000
    124      47.4519      0.00000
    125      47.7468      0.00000
    126      47.8958      0.00000
    127      48.0455      0.00000
    128      48.2631      0.00000

 k-point     5 :       0.4000    0.2000    0.0000
  band No.  band energies     occupation 
      1     -55.4405      2.00000
      2     -55.4405      2.00000
      3     -29.7344      2.00000
      4     -29.7341      2.00000
      5     -29.5707      2.00000
      6     -29.5704      2.00000
      7     -29.5351      2.00000
      8     -29.5347      2.00000
      9      -6.6579      2.00000
     10      -6.6420      2.00000
     11      -6.5441      2.00000
     12      -6.5290      2.00000
     13       0.1615      2.00000
     14       0.2261      2.00000
     15       0.2263      2.00000
     16       0.2477      2.00000
     17       1.4216      2.00000
     18       1.5741      2.00000
     19       2.2423      2.00000
     20       2.3872      2.00000
     21       2.6538      2.00000
     22       2.7250      2.00000
     23       3.4067      2.00000
     24       3.5381      2.00000
     25       5.1218      2.00000
     26       5.1786      2.00000
     27       7.4229      0.00000
     28       7.4610      0.00000
     29       8.5553      0.00000
     30       8.5567      0.00000
     31       8.5759      0.00000
     32       8.8825      0.00000
     33       9.7658      0.00000
     34      10.1179      0.00000
     35      12.0034      0.00000
     36      12.1373      0.00000
     37      13.7487      0.00000
     38      14.3912      0.00000
     39      14.5299      0.00000
     40      15.1982      0.00000
     41      15.2791      0.00000
     42      15.4638      0.00000
     43      15.7071      0.00000
     44      15.8059      0.00000
     45      16.4025      0.00000
     46      17.1639      0.00000
     47      17.7031      0.00000
     48      18.6614      0.00000
     49      18.9222      0.00000
     50      19.5853      0.00000
     51      19.6256      0.00000
     52      19.6376      0.00000
     53      20.8402      0.00000
     54      21.0262      0.00000
     55      21.1450      0.00000
     56      21.6663      0.00000
     57      22.4510      0.00000
     58      24.1587      0.00000
     59      24.2402      0.00000
     60      24.2502      0.00000
     61      24.3632      0.00000
     62      24.8039      0.00000
     63      25.6281      0.00000
     64      25.8697      0.00000
     65      26.7682      0.00000
     66      27.4730      0.00000
     67      27.6020      0.00000
     68      28.1967      0.00000
     69      28.6698      0.00000
     70      28.7170      0.00000
     71      28.7372      0.00000
     72      29.4376      0.00000
     73      30.1281      0.00000
     74      30.2075      0.00000
     75      30.5536      0.00000
     76      30.7493      0.00000
     77      31.1902      0.00000
     78      31.6430      0.00000
     79      31.9327      0.00000
     80      31.9499      0.00000
     81      32.0705      0.00000
     82      33.3369      0.00000
     83      33.8215      0.00000
     84      33.9204      0.00000
     85      33.9639      0.00000
     86      34.7218      0.00000
     87      34.9916      0.00000
     88      35.1145      0.00000
     89      35.4087      0.00000
     90      35.8399      0.00000
     91      35.9800      0.00000
     92      36.2289      0.00000
     93      36.2845      0.00000
     94      36.9974      0.00000
     95      37.0669      0.00000
     96      37.5521      0.00000
     97      38.0494      0.00000
     98      38.3423      0.00000
     99      38.8395      0.00000
    100      39.5647      0.00000
    101      39.5754      0.00000
    102      39.8095      0.00000
    103      40.9010      0.00000
    104      41.1652      0.00000
    105      41.3765      0.00000
    106      41.3907      0.00000
    107      41.5784      0.00000
    108      42.5192      0.00000
    109      42.5884      0.00000
    110      43.1634      0.00000
    111      43.2992      0.00000
    112      43.4873      0.00000
    113      43.4948      0.00000
    114      43.8245      0.00000
    115      43.8846      0.00000
    116      44.0650      0.00000
    117      44.3000      0.00000
    118      44.9274      0.00000
    119      45.4123      0.00000
    120      45.4917      0.00000
    121      45.6958      0.00000
    122      45.7705      0.00000
    123      45.9057      0.00000
    124      46.1044      0.00000
    125      46.7032      0.00000
    126      46.8435      0.00000
    127      47.6533      0.00000
    128      48.0509      0.00000

 k-point     6 :       0.0000    0.0000    0.2000
  band No.  band energies     occupation 
      1     -55.4817      2.00000
      2     -55.4815      2.00000
      3     -29.6168      2.00000
      4     -29.6165      2.00000
      5     -29.4049      2.00000
      6     -29.4048      2.00000
      7     -29.4047      2.00000
      8     -29.4046      2.00000
      9      -8.7081      2.00000
     10      -8.6576      2.00000
     11      -7.4330      2.00000
     12      -7.3448      2.00000
     13      -0.3610      2.00000
     14      -0.0554      2.00000
     15       2.8126      2.00000
     16       2.8127      2.00000
     17       2.8143      2.00000
     18       2.8144      2.00000
     19       3.1953      2.00000
     20       3.9140      2.00000
     21       3.9140      2.00000
     22       3.9205      2.00000
     23       3.9205      2.00000
     24       4.0410      2.00000
     25       5.2081      2.00000
     26       5.7034      2.00000
     27       8.1647      0.00000
     28       8.1649      0.00000
     29       8.1698      0.00000
     30       8.1700      0.00000
     31       8.3958      0.00000
     32       8.3959      0.00000
     33       8.4242      0.00000
     34       8.4243      0.00000
     35      11.4619      0.00000
     36      11.6540      0.00000
     37      13.1167      0.00000
     38      13.6006      0.00000
     39      14.3700      0.00000
     40      14.4969      0.00000
     41      16.1167      0.00000
     42      16.1172      0.00000
     43      16.2122      0.00000
     44      16.2128      0.00000
     45      17.5406      0.00000
     46      18.0569      0.00000
     47      18.0573      0.00000
     48      18.2643      0.00000
     49      18.2648      0.00000
     50      18.3528      0.00000
     51      19.7769      0.00000
     52      21.2116      0.00000
     53      21.2524      0.00000
     54      21.2527      0.00000
     55      21.4290      0.00000
     56      21.4292      0.00000
     57      21.5034      0.00000
     58      21.5039      0.00000
     59      21.6689      0.00000
     60      21.7371      0.00000
     61      21.9063      0.00000
     62      21.9065      0.00000
     63      23.5863      0.00000
     64      24.5632      0.00000
     65      25.0577      0.00000
     66      25.3049      0.00000
     67      26.2808      0.00000
     68      27.8634      0.00000
     69      27.8634      0.00000
     70      28.7343      0.00000
     71      28.9640      0.00000
     72      28.9641      0.00000
     73      30.1011      0.00000
     74      30.1011      0.00000
     75      30.4734      0.00000
     76      30.4736      0.00000
     77      31.0072      0.00000
     78      31.1581      0.00000
     79      32.1096      0.00000
     80      32.1097      0.00000
     81      32.1484      0.00000
     82      32.4751      0.00000
     83      33.0571      0.00000
     84      33.0575      0.00000
     85      33.3955      0.00000
     86      33.6648      0.00000
     87      34.9173      0.00000
     88      34.9174      0.00000
     89      34.9929      0.00000
     90      34.9930      0.00000
     91      36.6295      0.00000
     92      36.9349      0.00000
     93      36.9353      0.00000
     94      37.7033      0.00000
     95      37.7036      0.00000
     96      37.7220      0.00000
     97      38.3958      0.00000
     98      38.3959      0.00000
     99      38.5929      0.00000
    100      38.9231      0.00000
    101      38.9242      0.00000
    102      39.9047      0.00000
    103      40.5750      0.00000
    104      40.5801      0.00000
    105      40.5817      0.00000
    106      40.9140      0.00000
    107      41.1928      0.00000
    108      41.2033      0.00000
    109      41.9663      0.00000
    110      41.9695      0.00000
    111      43.0103      0.00000
    112      43.0127      0.00000
    113      43.4546      0.00000
    114      43.4752      0.00000
    115      43.4771      0.00000
    116      43.7885      0.00000
    117      45.1918      0.00000
    118      45.8408      0.00000
    119      46.7145      0.00000
    120      46.7149      0.00000
    121      46.7353      0.00000
    122      46.7375      0.00000
    123      47.2683      0.00000
    124      47.2700      0.00000
    125      47.8275      0.00000
    126      48.8221      0.00000
    127      48.8240      0.00000
    128      50.1549      0.00000

 k-point     7 :       0.2000   -0.0000    0.2000
  band No.  band energies     occupation 
      1     -55.4683      2.00000
      2     -55.4682      2.00000
      3     -29.5907      2.00000
      4     -29.5904      2.00000
      5     -29.5351      2.00000
      6     -29.5350      2.00000
      7     -29.4345      2.00000
      8     -29.4344      2.00000
      9      -8.1531      2.00000
     10      -8.1054      2.00000
     11      -7.1956      2.00000
     12      -7.1234      2.00000
     13       0.1869      2.00000
     14       0.4611      2.00000
     15       1.8264      2.00000
     16       1.8547      2.00000
     17       2.1025      2.00000
     18       2.3485      2.00000
     19       3.1887      2.00000
     20       3.1986      2.00000
     21       3.3755      2.00000
     22       3.3829      2.00000
     23       4.0786      2.00000
     24       4.4281      2.00000
     25       4.8962      2.00000
     26       5.0222      2.00000
     27       7.4431      0.00000
     28       7.7921      0.00000
     29       7.8906      0.00000
     30       7.9319      0.00000
     31       8.0380      0.00000
     32       8.2149      0.00000
     33       8.9148      0.00000
     34       8.9507      0.00000
     35      12.8869      0.00000
     36      13.4577      0.00000
     37      13.9670      0.00000
     38      14.2442      0.00000
     39      14.9718      0.00000
     40      15.0934      0.00000
     41      15.1844      0.00000
     42      15.3533      0.00000
     43      16.8614      0.00000
     44      17.1062      0.00000
     45      17.4023      0.00000
     46      17.7417      0.00000
     47      17.7743      0.00000
     48      17.8118      0.00000
     49      18.3729      0.00000
     50      18.7311      0.00000
     51      18.9182      0.00000
     52      19.1500      0.00000
     53      19.5856      0.00000
     54      19.7448      0.00000
     55      20.3955      0.00000
     56      20.7678      0.00000
     57      22.1397      0.00000
     58      22.3300      0.00000
     59      22.3943      0.00000
     60      22.8166      0.00000
     61      24.9693      0.00000
     62      25.0193      0.00000
     63      25.3160      0.00000
     64      25.5888      0.00000
     65      26.2658      0.00000
     66      26.4757      0.00000
     67      26.6667      0.00000
     68      27.6666      0.00000
     69      27.7365      0.00000
     70      27.9374      0.00000
     71      28.5432      0.00000
     72      28.5470      0.00000
     73      28.7681      0.00000
     74      29.4304      0.00000
     75      29.6579      0.00000
     76      29.8757      0.00000
     77      30.4264      0.00000
     78      31.2976      0.00000
     79      31.9871      0.00000
     80      32.5295      0.00000
     81      32.9083      0.00000
     82      32.9135      0.00000
     83      33.3553      0.00000
     84      33.6372      0.00000
     85      33.9803      0.00000
     86      34.8872      0.00000
     87      35.2727      0.00000
     88      35.6215      0.00000
     89      35.7152      0.00000
     90      36.0584      0.00000
     91      36.2740      0.00000
     92      36.4707      0.00000
     93      36.6320      0.00000
     94      36.8345      0.00000
     95      37.5308      0.00000
     96      37.7568      0.00000
     97      37.8730      0.00000
     98      38.3912      0.00000
     99      38.5802      0.00000
    100      38.6947      0.00000
    101      39.0347      0.00000
    102      39.4191      0.00000
    103      39.4543      0.00000
    104      39.4652      0.00000
    105      39.6936      0.00000
    106      39.8647      0.00000
    107      41.5162      0.00000
    108      41.9102      0.00000
    109      42.4314      0.00000
    110      42.8888      0.00000
    111      43.2177      0.00000
    112      43.4841      0.00000
    113      43.7521      0.00000
    114      44.2826      0.00000
    115      44.4420      0.00000
    116      44.5237      0.00000
    117      44.8466      0.00000
    118      45.4414      0.00000
    119      45.5629      0.00000
    120      46.2866      0.00000
    121      46.6718      0.00000
    122      46.8431      0.00000
    123      47.1030      0.00000
    124      47.8409      0.00000
    125      47.9648      0.00000
    126      48.5560      0.00000
    127      48.7956      0.00000
    128      49.7847      0.00000

 k-point     8 :       0.4000   -0.0000    0.2000
  band No.  band energies     occupation 
      1     -55.4472      2.00000
      2     -55.4470      2.00000
      3     -29.7425      2.00000
      4     -29.7423      2.00000
      5     -29.5485      2.00000
      6     -29.5480      2.00000
      7     -29.4829      2.00000
      8     -29.4826      2.00000
      9      -7.0526      2.00000
     10      -7.0233      2.00000
     11      -6.7376      2.00000
     12      -6.7053      2.00000
     13      -0.1689      2.00000
     14      -0.0974      2.00000
     15       0.8089      2.00000
     16       0.8849      2.00000
     17       1.3621      2.00000
     18       1.5338      2.00000
     19       2.3673      2.00000
     20       2.3795      2.00000
     21       3.5356      2.00000
     22       3.6774      2.00000
     23       4.2887      2.00000
     24       4.3164      2.00000
     25       4.5093      2.00000
     26       4.5948      2.00000
     27       7.6086      0.00000
     28       7.6272      0.00000
     29       7.8548      0.00000
     30       8.0599      0.00000
     31       8.9303      0.00000
     32       9.2973      0.00000
     33       9.5833      0.00000
     34       9.6690      0.00000
     35      12.0907      0.00000
     36      12.3530      0.00000
     37      13.0001      0.00000
     38      13.2521      0.00000
     39      13.5178      0.00000
     40      14.2505      0.00000
     41      14.6944      0.00000
     42      15.2644      0.00000
     43      16.2487      0.00000
     44      16.8117      0.00000
     45      16.8941      0.00000
     46      17.2314      0.00000
     47      18.0406      0.00000
     48      18.2593      0.00000
     49      19.8108      0.00000
     50      19.9387      0.00000
     51      20.7397      0.00000
     52      20.8017      0.00000
     53      20.9464      0.00000
     54      21.6242      0.00000
     55      21.8276      0.00000
     56      22.0591      0.00000
     57      22.8117      0.00000
     58      23.0195      0.00000
     59      23.0359      0.00000
     60      23.3392      0.00000
     61      24.3882      0.00000
     62      24.5242      0.00000
     63      24.8422      0.00000
     64      25.3295      0.00000
     65      26.0117      0.00000
     66      27.0094      0.00000
     67      27.2946      0.00000
     68      27.6330      0.00000
     69      27.8857      0.00000
     70      28.5432      0.00000
     71      29.3828      0.00000
     72      29.5232      0.00000
     73      30.3187      0.00000
     74      30.3463      0.00000
     75      30.9513      0.00000
     76      31.0993      0.00000
     77      31.1770      0.00000
     78      31.3713      0.00000
     79      31.5122      0.00000
     80      31.7927      0.00000
     81      32.3222      0.00000
     82      32.5473      0.00000
     83      32.6161      0.00000
     84      33.2036      0.00000
     85      33.4381      0.00000
     86      33.5881      0.00000
     87      34.6765      0.00000
     88      34.9846      0.00000
     89      35.7316      0.00000
     90      36.0053      0.00000
     91      36.3272      0.00000
     92      36.3361      0.00000
     93      37.0552      0.00000
     94      37.1542      0.00000
     95      37.5025      0.00000
     96      37.9228      0.00000
     97      38.1965      0.00000
     98      38.4302      0.00000
     99      38.9141      0.00000
    100      39.3849      0.00000
    101      39.4701      0.00000
    102      39.8547      0.00000
    103      40.2421      0.00000
    104      40.4949      0.00000
    105      40.5994      0.00000
    106      40.8409      0.00000
    107      41.6474      0.00000
    108      42.2172      0.00000
    109      42.3907      0.00000
    110      42.9971      0.00000
    111      43.0934      0.00000
    112      43.2704      0.00000
    113      43.8109      0.00000
    114      44.0929      0.00000
    115      44.1881      0.00000
    116      44.6197      0.00000
    117      44.6371      0.00000
    118      45.1141      0.00000
    119      45.4572      0.00000
    120      45.7368      0.00000
    121      46.4973      0.00000
    122      46.5671      0.00000
    123      46.7728      0.00000
    124      47.0600      0.00000
    125      47.2749      0.00000
    126      47.8199      0.00000
    127      47.9810      0.00000
    128      48.0893      0.00000

 k-point     9 :       0.2000    0.2000    0.2000
  band No.  band energies     occupation 
      1     -55.4513      2.00000
      2     -55.4511      2.00000
      3     -29.6706      2.00000
      4     -29.6703      2.00000
      5     -29.5565      2.00000
      6     -29.5561      2.00000
      7     -29.5078      2.00000
      8     -29.5073      2.00000
      9      -7.3006      2.00000
     10      -7.2638      2.00000
     11      -6.8276      2.00000
     12      -6.7829      2.00000
     13       0.3210      2.00000
     14       0.4203      2.00000
     15       1.1851      2.00000
     16       1.2222      2.00000
     17       1.6371      2.00000
     18       1.7363      2.00000
     19       2.0039      2.00000
     20       2.2001      2.00000
     21       3.1708      2.00000
     22       3.1771      2.00000
     23       4.1409      2.00000
     24       4.1940      2.00000
     25       4.6315      2.00000
     26       4.6337      2.00000
     27       7.2192      0.00000
     28       7.5869      0.00000
     29       7.9261      0.00000
     30       7.9916      0.00000
     31       8.1807      0.00000
     32       8.4343      0.00000
     33       9.6807      0.00000
     34       9.9182      0.00000
     35      13.5256      0.00000
     36      13.6789      0.00000
     37      13.8513      0.00000
     38      13.9997      0.00000
     39      14.7385      0.00000
     40      15.1458      0.00000
     41      15.4865      0.00000
     42      15.7123      0.00000
     43      16.3311      0.00000
     44      16.3811      0.00000
     45      16.9310      0.00000
     46      17.1085      0.00000
     47      17.5512      0.00000
     48      17.5801      0.00000
     49      17.9593      0.00000
     50      18.1467      0.00000
     51      18.5448      0.00000
     52      19.8038      0.00000
     53      20.0742      0.00000
     54      20.5084      0.00000
     55      21.5089      0.00000
     56      21.6047      0.00000
     57      22.4221      0.00000
     58      23.6346      0.00000
     59      23.7155      0.00000
     60      24.5468      0.00000
     61      24.9356      0.00000
     62      25.0697      0.00000
     63      25.4454      0.00000
     64      25.6784      0.00000
     65      26.5028      0.00000
     66      26.5268      0.00000
     67      27.7307      0.00000
     68      28.1313      0.00000
     69      28.4495      0.00000
     70      29.0198      0.00000
     71      29.0719      0.00000
     72      29.3532      0.00000
     73      29.6427      0.00000
     74      29.7378      0.00000
     75      30.3095      0.00000
     76      30.3938      0.00000
     77      30.6454      0.00000
     78      30.8114      0.00000
     79      31.1680      0.00000
     80      31.8987      0.00000
     81      32.4573      0.00000
     82      32.5290      0.00000
     83      33.4985      0.00000
     84      33.7486      0.00000
     85      33.9094      0.00000
     86      34.2088      0.00000
     87      35.0449      0.00000
     88      35.0636      0.00000
     89      35.2606      0.00000
     90      35.8853      0.00000
     91      36.1145      0.00000
     92      36.2695      0.00000
     93      36.3331      0.00000
     94      36.8937      0.00000
     95      36.9970      0.00000
     96      37.4618      0.00000
     97      37.7779      0.00000
     98      37.9236      0.00000
     99      39.1035      0.00000
    100      39.6222      0.00000
    101      39.7897      0.00000
    102      39.9879      0.00000
    103      40.2649      0.00000
    104      40.5475      0.00000
    105      40.7131      0.00000
    106      41.0031      0.00000
    107      41.8609      0.00000
    108      41.8654      0.00000
    109      42.5682      0.00000
    110      42.6518      0.00000
    111      43.0814      0.00000
    112      43.3982      0.00000
    113      43.5180      0.00000
    114      44.1366      0.00000
    115      44.3997      0.00000
    116      44.6317      0.00000
    117      44.7466      0.00000
    118      45.5261      0.00000
    119      45.9340      0.00000
    120      46.1539      0.00000
    121      46.5425      0.00000
    122      46.9664      0.00000
    123      46.9958      0.00000
    124      47.3430      0.00000
    125      47.6543      0.00000
    126      47.8189      0.00000
    127      48.1801      0.00000
    128      48.2738      0.00000

 k-point    10 :       0.4000    0.2000    0.2000
  band No.  band energies     occupation 
      1     -55.4407      2.00000
      2     -55.4404      2.00000
      3     -29.7344      2.00000
      4     -29.7339      2.00000
      5     -29.5708      2.00000
      6     -29.5706      2.00000
[...]
   33.836852    0.842974    0.842975    0.841493    0.000000   -0.000000   -0.000000
   34.259813    0.910622    0.910622    0.841339    0.000000   -0.000000    0.000000
   34.682773    0.924894    0.924894    0.852952    0.000000   -0.000000   -0.000000
   35.105734    0.935754    0.935755    0.884363    0.000000    0.000000    0.000000
   35.528695    1.032045    1.032045    0.964661    0.000000   -0.000000    0.000000
   35.951655    1.148418    1.148418    1.066886   -0.000000    0.000000   -0.000000
   36.374616    1.338773    1.338773    1.237946   -0.000000   -0.000000   -0.000000
   36.797577    1.773940    1.773939    1.581868   -0.000000    0.000000    0.000000
   37.220537    1.155862    1.155862    1.180111   -0.000000   -0.000000   -0.000000
   37.643498    0.506532    0.506532    0.594361    0.000000    0.000000    0.000000
   38.066459    0.352110    0.352110    0.521048    0.000000    0.000000    0.000000
   38.489419    0.001476    0.001477    0.207828    0.000000   -0.000000    0.000000
   38.912380    0.270832    0.270832    0.618044    0.000000    0.000000    0.000000
   39.335341    0.247604    0.247604    0.442540    0.000000    0.000000    0.000000
   39.758301    0.192373    0.192373    0.119719    0.000000    0.000000    0.000000
   40.181262    0.346718    0.346718    0.299304    0.000000    0.000000    0.000000
   40.604223    0.468375    0.468375    0.432649    0.000000   -0.000000    0.000000
   41.027183    0.537566    0.537567    0.538966    0.000000    0.000000    0.000000
   41.450144    0.599684    0.599684    0.606218    0.000000   -0.000000    0.000000
   41.873104    0.580586    0.580586    0.531057    0.000000    0.000000   -0.000000
   42.296065    0.534664    0.534665    0.623367    0.000000   -0.000000    0.000000
   42.719026    0.622199    0.622199    0.619495    0.000000   -0.000000    0.000000
   43.141986    0.644172    0.644173    0.680992    0.000000   -0.000000    0.000000
   43.564947    0.594267    0.594267    0.529283    0.000000    0.000000    0.000000
   43.987908    0.596243    0.596243    0.597003    0.000000   -0.000000    0.000000
   44.410868    0.636756    0.636756    0.648318    0.000000    0.000000    0.000000
   44.833829    0.628309    0.628310    0.568287    0.000000   -0.000000   -0.000000
   45.256790    0.632577    0.632577    0.604544    0.000000   -0.000000   -0.000000
   45.679750    0.671239    0.671239    0.659727    0.000000   -0.000000    0.000000
   46.102711    0.631096    0.631097    0.679811    0.000000   -0.000000   -0.000000
   46.525672    0.692564    0.692564    0.674182    0.000000    0.000000   -0.000000
   46.948632    0.647686    0.647686    0.707372    0.000000    0.000000    0.000000
   47.371593    0.648732    0.648733    0.668131    0.000000   -0.000000    0.000000
   47.794554    0.670987    0.670988    0.663778    0.000000    0.000000    0.000000
   48.217514    0.684884    0.684884    0.686842    0.000000    0.000000    0.000000
   48.640475    0.702838    0.702838    0.697396    0.000000   -0.000000    0.000000
   49.063436    0.725488    0.725489    0.709218    0.000000   -0.000000    0.000000
   49.486396    0.720617    0.720618    0.708003    0.000000    0.000000   -0.000000
   49.909357    0.721890    0.721891    0.725539    0.000000    0.000000    0.000000
   50.332317    0.723736    0.723736    0.734259    0.000000   -0.000000   -0.000000
   50.755278    0.734556    0.734557    0.738002    0.000000   -0.000000    0.000000
   51.178239    0.745841    0.745841    0.749480    0.000000   -0.000000   -0.000000
   51.601199    0.754643    0.754643    0.760755    0.000000    0.000000   -0.000000
   52.024160    0.751002    0.751003    0.751759    0.000000    0.000000    0.000000
   52.447121    0.763679    0.763679    0.763362    0.000000    0.000000   -0.000000
   52.870081    0.767889    0.767889    0.761504    0.000000   -0.000000    0.000000
   53.293042    0.775944    0.775944    0.773784    0.000000    0.000000    0.000000
   53.716003    0.788267    0.788267    0.786940    0.000000   -0.000000    0.000000
   54.138963    0.784699    0.784699    0.785569    0.000000   -0.000000    0.000000
   54.561924    0.787903    0.787903    0.785362    0.000000   -0.000000    0.000000
   54.984885    0.796006    0.796006    0.793313    0.000000   -0.000000    0.000000
   55.407845    0.799194    0.799194    0.792319    0.000000    0.000000    0.000000
   55.830806    0.813959    0.813959    0.806608    0.000000    0.000000    0.000000
   56.253767    0.805835    0.805835    0.807855    0.000000    0.000000    0.000000
   56.676727    0.813402    0.813402    0.814772    0.000000    0.000000    0.000000
   57.099688    0.820823    0.820823    0.823351    0.000000   -0.000000    0.000000
   57.522649    0.818066    0.818066    0.820855    0.000000    0.000000    0.000000
   57.945609    0.831071    0.831071    0.836402    0.000000   -0.000000    0.000000
   58.368570    0.803500    0.803500    0.814626    0.000000    0.000000   -0.000000
   58.791530    0.811579    0.811579    0.823347    0.000000    0.000000    0.000000
   59.214491    0.820751    0.820751    0.816915    0.000000    0.000000    0.000000
   59.637452    0.829615    0.829615    0.829471    0.000000    0.000000    0.000000
   60.060412    0.832862    0.832862    0.830428    0.000000    0.000000    0.000000
   60.483373    0.839100    0.839100    0.836055    0.000000   -0.000000    0.000000
   60.906334    0.839221    0.839221    0.837381    0.000000   -0.000000    0.000000
   61.329294    0.844814    0.844814    0.842461    0.000000    0.000000    0.000000
   61.752255    0.841515    0.841515    0.842545    0.000000    0.000000    0.000000
   62.175216    0.843619    0.843619    0.845652    0.000000   -0.000000    0.000000
   62.598176    0.849403    0.849403    0.850942    0.000000    0.000000    0.000000
   63.021137    0.850673    0.850673    0.856968    0.000000    0.000000    0.000000
   63.444098    0.844587    0.844587    0.843670    0.000000   -0.000000    0.000000
   63.867058    0.848489    0.848490    0.849205    0.000000   -0.000000    0.000000
   64.290019    0.855689    0.855689    0.856403    0.000000   -0.000000    0.000000
   64.712980    0.858546    0.858546    0.861362    0.000000    0.000000    0.000000
   65.135940    0.861375    0.861375    0.862731    0.000000   -0.000000    0.000000
   65.558901    0.865060    0.865060    0.867396    0.000000   -0.000000    0.000000
   65.981862    0.860794    0.860794    0.861097    0.000000   -0.000000    0.000000
   66.404822    0.864252    0.864252    0.866265    0.000000   -0.000000    0.000000
   66.827783    0.868265    0.868265    0.869231    0.000000   -0.000000    0.000000
   67.250744    0.870732    0.870732    0.871759    0.000000   -0.000000    0.000000
   67.673704    0.871469    0.871469    0.874631    0.000000   -0.000000    0.000000
   68.096665    0.873506    0.873506    0.878096    0.000000    0.000000    0.000000
   68.519625    0.876699    0.876700    0.878099    0.000000    0.000000    0.000000
   68.942586    0.878340    0.878340    0.878014    0.000000   -0.000000    0.000000
   69.365547    0.877924    0.877924    0.879897    0.000000   -0.000000    0.000000
   69.788507    0.880903    0.880903    0.879871    0.000000   -0.000000    0.000000
   70.211468    0.883969    0.883969    0.883681    0.000000    0.000000    0.000000
   70.634429    0.884930    0.884930    0.885292    0.000000   -0.000000    0.000000
   71.057389    0.885857    0.885857    0.887127    0.000000   -0.000000    0.000000
   71.480350    0.887777    0.887777    0.887711    0.000000   -0.000000    0.000000
   71.903311    0.890116    0.890116    0.889974    0.000000   -0.000000    0.000000
   72.326271    0.891887    0.891887    0.889860    0.000000   -0.000000    0.000000
   72.749232    0.893907    0.893907    0.892876    0.000000   -0.000000    0.000000
   73.172193    0.891112    0.891112    0.891943    0.000000   -0.000000    0.000000
   73.595153    0.893254    0.893254    0.894757    0.000000   -0.000000    0.000000
   74.018114    0.895980    0.895980    0.897126    0.000000   -0.000000    0.000000
   74.441075    0.897197    0.897197    0.899304    0.000000   -0.000000    0.000000
   74.864035    0.898961    0.898961    0.899722    0.000000   -0.000000    0.000000
   75.286996    0.900000    0.900000    0.900105    0.000000   -0.000000    0.000000
   75.709957    0.901507    0.901507    0.901303    0.000000   -0.000000    0.000000
   76.132917    0.903148    0.903148    0.902680    0.000000   -0.000000    0.000000
   76.555878    0.902655    0.902655    0.902472    0.000000   -0.000000    0.000000
   76.978838    0.905097    0.905097    0.905689    0.000000   -0.000000    0.000000
   77.401799    0.905109    0.905109    0.906031    0.000000   -0.000000    0.000000
   77.824760    0.907268    0.907268    0.906954    0.000000   -0.000000    0.000000
   78.247720    0.904709    0.904709    0.906155    0.000000   -0.000000    0.000000
   78.670681    0.907775    0.907775    0.907769    0.000000   -0.000000    0.000000
   79.093642    0.909177    0.909177    0.909646    0.000000   -0.000000    0.000000
   79.516602    0.910910    0.910910    0.911690    0.000000   -0.000000    0.000000
   79.939563    0.911531    0.911531    0.912403    0.000000    0.000000    0.000000
   80.362524    0.912445    0.912445    0.913389    0.000000   -0.000000    0.000000
   80.785484    0.913976    0.913976    0.914301    0.000000   -0.000000    0.000000
   81.208445    0.914934    0.914934    0.915346    0.000000   -0.000000    0.000000
   81.631406    0.916415    0.916415    0.916747    0.000000   -0.000000    0.000000
   82.054366    0.917180    0.917180    0.917975    0.000000    0.000000    0.000000
   82.477327    0.918474    0.918474    0.918847    0.000000   -0.000000    0.000000
   82.900288    0.919919    0.919919    0.920180    0.000000   -0.000000    0.000000
   83.323248    0.920326    0.920326    0.921229    0.000000   -0.000000    0.000000
   83.746209    0.921298    0.921298    0.922597    0.000000   -0.000000    0.000000
   84.169170    0.922085    0.922085    0.921939    0.000000   -0.000000    0.000000
   84.592130    0.923049    0.923049    0.922967    0.000000    0.000000    0.000000
   85.015091    0.924343    0.924343    0.923755    0.000000   -0.000000    0.000000
   85.438052    0.924363    0.924363    0.925175    0.000000   -0.000000    0.000000
   85.861012    0.925107    0.925107    0.925829    0.000000    0.000000    0.000000
   86.283973    0.926270    0.926270    0.926229    0.000000   -0.000000    0.000000
   86.706933    0.927089    0.927089    0.927204    0.000000   -0.000000    0.000000
   87.129894    0.928120    0.928120    0.928181    0.000000    0.000000    0.000000
   87.552855    0.928971    0.928971    0.929188    0.000000   -0.000000    0.000000
   87.975815    0.930040    0.930040    0.929710    0.000000    0.000000    0.000000
   88.398776    0.929572    0.929572    0.930583    0.000000    0.000000    0.000000
   88.821737    0.930846    0.930846    0.931823    0.000000    0.000000    0.000000
   89.244697    0.931600    0.931600    0.932248    0.000000   -0.000000    0.000000
   89.667658    0.932407    0.932407    0.932717    0.000000   -0.000000    0.000000
   90.090619    0.933638    0.933638    0.933734    0.000000   -0.000000    0.000000
   90.513579    0.933876    0.933876    0.934392    0.000000    0.000000    0.000000
   90.936540    0.934797    0.934797    0.934106    0.000000   -0.000000    0.000000
   91.359501    0.936011    0.936011    0.934523    0.000000    0.000000    0.000000
   91.782461    0.935070    0.935070    0.935172    0.000000   -0.000000    0.000000
   92.205422    0.936004    0.936004    0.936286    0.000000    0.000000    0.000000
   92.628383    0.936459    0.936459    0.936256    0.000000   -0.000000    0.000000
   93.051343    0.937297    0.937297    0.937181    0.000000   -0.000000    0.000000
   93.474304    0.937538    0.937538    0.937518    0.000000   -0.000000    0.000000
   93.897265    0.938447    0.938447    0.938494    0.000000   -0.000000    0.000000
   94.320225    0.939208    0.939208    0.939280    0.000000   -0.000000    0.000000
   94.743186    0.940103    0.940103    0.940055    0.000000   -0.000000    0.000000
   95.166146    0.939940    0.939940    0.940685    0.000000   -0.000000    0.000000
   95.589107    0.940423    0.940423    0.941263    0.000000   -0.000000    0.000000
   96.012068    0.941424    0.941424    0.941803    0.000000   -0.000000    0.000000
   96.435028    0.941237    0.941237    0.942093    0.000000   -0.000000    0.000000
   96.857989    0.942290    0.942290    0.942981    0.000000   -0.000000    0.000000
   97.280950    0.943128    0.943128    0.943603    0.000000   -0.000000    0.000000
   97.703910    0.943546    0.943546    0.944691    0.000000    0.000000    0.000000
   98.126871    0.944196    0.944196    0.944629    0.000000   -0.000000    0.000000
   98.549832    0.944866    0.944866    0.944963    0.000000   -0.000000    0.000000
   98.972792    0.945177    0.945177    0.944488    0.000000   -0.000000    0.000000
   99.395753    0.945752    0.945752    0.945261    0.000000   -0.000000    0.000000
   99.818714    0.945987    0.945987    0.945798    0.000000   -0.000000    0.000000
  100.241674    0.946014    0.946014    0.946581    0.000000   -0.000000    0.000000
  100.664635    0.946558    0.946558    0.947262    0.000000   -0.000000    0.000000
  101.087596    0.947042    0.947042    0.947270    0.000000    0.000000    0.000000
  101.510556    0.947574    0.947574    0.947902    0.000000    0.000000    0.000000
  101.933517    0.948074    0.948074    0.948171    0.000000   -0.000000    0.000000
  102.356478    0.948480    0.948480    0.948680    0.000000   -0.000000    0.000000
  102.779438    0.948855    0.948855    0.949073    0.000000   -0.000000    0.000000
  103.202399    0.949321    0.949321    0.949497    0.000000   -0.000000    0.000000
  103.625360    0.949811    0.949811    0.949580    0.000000   -0.000000    0.000000
  104.048320    0.950257    0.950257    0.949998    0.000000   -0.000000    0.000000
  104.471281    0.950757    0.950757    0.950540    0.000000   -0.000000    0.000000
  104.894241    0.951281    0.951281    0.951126    0.000000   -0.000000    0.000000
  105.317202    0.951527    0.951527    0.951623    0.000000   -0.000000    0.000000
  105.740163    0.951916    0.951916    0.952077    0.000000   -0.000000    0.000000
  106.163123    0.952415    0.952415    0.952523    0.000000   -0.000000    0.000000
  106.586084    0.952860    0.952860    0.952956    0.000000   -0.000000    0.000000
  107.009045    0.953284    0.953284    0.953377    0.000000   -0.000000    0.000000
  107.432005    0.953696    0.953696    0.953787    0.000000   -0.000000    0.000000
  107.854966    0.954099    0.954099    0.954189    0.000000   -0.000000    0.000000
  108.277927    0.954493    0.954493    0.954583    0.000000   -0.000000    0.000000
  108.700887    0.954880    0.954880    0.954970    0.000000   -0.000000    0.000000
  109.123848    0.955261    0.955261    0.955351    0.000000   -0.000000    0.000000
  109.546809    0.955636    0.955636    0.955725    0.000000   -0.000000    0.000000
  109.969769    0.956005    0.956005    0.956094    0.000000   -0.000000    0.000000
  110.392730    0.956368    0.956368    0.956457    0.000000   -0.000000    0.000000
  110.815691    0.956726    0.956726    0.956815    0.000000   -0.000000    0.000000
  111.238651    0.957079    0.957079    0.957168    0.000000   -0.000000    0.000000
  111.661612    0.957428    0.957428    0.957516    0.000000   -0.000000    0.000000
  112.084573    0.957771    0.957771    0.957859    0.000000   -0.000000    0.000000
  112.507533    0.958110    0.958110    0.958197    0.000000   -0.000000    0.000000
  112.930494    0.958445    0.958445    0.958531    0.000000   -0.000000    0.000000
  113.353454    0.958775    0.958775    0.958861    0.000000   -0.000000    0.000000
  113.776415    0.959101    0.959101    0.959186    0.000000   -0.000000    0.000000
  114.199376    0.959422    0.959422    0.959507    0.000000   -0.000000    0.000000
  114.622336    0.959740    0.959740    0.959824    0.000000   -0.000000    0.000000
  115.045297    0.960054    0.960054    0.960137    0.000000   -0.000000    0.000000
  115.468258    0.960363    0.960363    0.960446    0.000000   -0.000000    0.000000
  115.891218    0.960669    0.960669    0.960752    0.000000   -0.000000    0.000000
  116.314179    0.960971    0.960971    0.961053    0.000000   -0.000000    0.000000
  116.737140    0.961270    0.961270    0.961351    0.000000   -0.000000    0.000000
  117.160100    0.961565    0.961565    0.961645    0.000000   -0.000000    0.000000
  117.583061    0.961856    0.961856    0.961936    0.000000   -0.000000    0.000000
  118.006022    0.962144    0.962144    0.962223    0.000000   -0.000000    0.000000
  118.428982    0.962429    0.962429    0.962507    0.000000   -0.000000    0.000000
  118.851943    0.962710    0.962710    0.962788    0.000000   -0.000000    0.000000
  119.274904    0.962988    0.962988    0.963065    0.000000   -0.000000    0.000000
  119.697864    0.963262    0.963262    0.963339    0.000000   -0.000000    0.000000
  120.120825    0.963534    0.963534    0.963609    0.000000   -0.000000    0.000000
  120.543786    0.963802    0.963802    0.963877    0.000000   -0.000000    0.000000
  120.966746    0.964067    0.964067    0.964142    0.000000   -0.000000    0.000000
  121.389707    0.964330    0.964330    0.964403    0.000000   -0.000000    0.000000
  121.812668    0.964589    0.964589    0.964662    0.000000   -0.000000    0.000000
  122.235628    0.964845    0.964845    0.964918    0.000000   -0.000000    0.000000
  122.658589    0.965099    0.965099    0.965171    0.000000   -0.000000    0.000000
  123.081549    0.965350    0.965350    0.965421    0.000000   -0.000000    0.000000
  123.504510    0.965598    0.965598    0.965668    0.000000   -0.000000    0.000000
  123.927471    0.965843    0.965843    0.965913    0.000000   -0.000000    0.000000
  124.350431    0.966085    0.966085    0.966154    0.000000   -0.000000    0.000000
  124.773392    0.966325    0.966325    0.966394    0.000000   -0.000000    0.000000
  125.196353    0.966562    0.966562    0.966630    0.000000   -0.000000    0.000000
  125.619313    0.966797    0.966797    0.966864    0.000000   -0.000000    0.000000
  126.042274    0.967029    0.967029    0.967096    0.000000   -0.000000    0.000000
  126.465235    0.967259    0.967259    0.967325    0.000000   -0.000000    0.000000
 
 The outermost node in the dielectric function lies at epsilon=  38.7


--------------------------------------------------------------------------------------------------------


    OPTICS:  cpu time    0.6549: real time    0.6634
    4ORBIT:  cpu time    0.0000: real time    0.0000

 total amount of memory used by VASP MPI-rank0    34818. kBytes
=======================================================================

   base      :      30000. kBytes
   nonl-proj :       2225. kBytes
   fftplans  :        180. kBytes
   grid      :        275. kBytes
   one-center:         80. kBytes
   wavefun   :       2058. kBytes
 
  
  
 General timing and accounting informations for this job:
 ========================================================
  
                  Total CPU time used (sec):       97.621
                            User time (sec):       95.776
                          System time (sec):        1.845
                         Elapsed time (sec):       98.291
  
                   Maximum memory used (kb):      121960.
                   Average memory used (kb):           0.
  
                          Minor page faults:        20948
                          Major page faults:           16
                 Voluntary context switches:         1765
