 running on   32 total cores
 distrk:  each k-point on   32 cores,    1 groups
 distr:  one band on    8 cores,    4 groups
 using from now: INCAR     
 vasp.5.4.4.18Apr17-6-g9f103f2a35 (build Nov 26 2018 16:29:41) complex          
  
 POSCAR found type information on POSCAR  Mo S 
 POSCAR found :  2 types and       6 ions
 scaLAPACK will be used

 ----------------------------------------------------------------------------- 
|                                                                             |
|           W    W    AA    RRRRR   N    N  II  N    N   GGGG   !!!           |
|           W    W   A  A   R    R  NN   N  II  NN   N  G    G  !!!           |
|           W    W  A    A  R    R  N N  N  II  N N  N  G       !!!           |
|           W WW W  AAAAAA  RRRRR   N  N N  II  N  N N  G  GGG   !            |
|           WW  WW  A    A  R   R   N   NN  II  N   NN  G    G                |
|           W    W  A    A  R    R  N    N  II  N    N   GGGG   !!!           |
|                                                                             |
|      For LVTOT=.TRUE. VASP.5.x writes the TOTAL local potential to          |
|      the file LOCPOT. If you want the Hartree contributions only, use       |
|      LVHAR=.TRUE. instead.                                                  |
|                                                                             |
 ----------------------------------------------------------------------------- 

 LDA part: xc-table for Pade appr. of Perdew
 found WAVECAR, reading the header
  number of bands has changed, file:    32 present:   128
  trying to continue reading WAVECAR, but it might fail
 WAVECAR: different cutoff or change in lattice found
 POSCAR, INCAR and KPOINTS ok, starting setup
 FFT: planning ...
 reading WAVECAR
 random initialization beyond band           33
 the WAVECAR file was read successfully
 initial charge from wavefunction
 entering main loop
       N       E                     dE             d eps       ncg     rms          rms(c)
DIA:   1    -0.452002361214E+02   -0.45200E+02    0.00000E+00     0   0.000E+00    0.527E-01
DIA:   2    -0.451983550984E+02    0.18810E-02    0.00000E+00     0   0.000E+00    0.295E-01
DIA:   3    -0.451965324990E+02    0.18226E-02    0.00000E+00     0   0.000E+00    0.154E-01
DIA:   4    -0.451964502649E+02    0.82234E-04    0.00000E+00     0   0.000E+00
   1 F= -.45196450E+02 E0= -.45196450E+02  d E =-.145536E-11
 writing wavefunctions
 optical routines
 imaginary and real dielectric function
 recalculating local potential from charge density
 direction            1
 direction            2
 direction            3
