<?xml version="1.0" encoding="ISO-8859-1"?>
<modeling>
 <generator>
  <i name="program" type="string">vasp </i>
  <i name="version" type="string">5.4.4.18Apr17-6-g9f103f2a35  </i>
  <i name="subversion" type="string">(build Nov 26 2018 16:29:41) complex            parallel </i>
  <i name="platform" type="string">LinuxIFC </i>
  <i name="date" type="string">2019 07 02 </i>
  <i name="time" type="string">14:08:03 </i>
 </generator>
 <incar>
  <i type="string" name="SYSTEM"> 2H-MoS2</i>
  <i type="string" name="PREC">normal</i>
  <i type="string" name="ALGO"> Exact</i>
  <i name="EDIFF">      0.00010000</i>
  <i type="int" name="NBANDS">   128</i>
  <i type="int" name="NEDOS">  3000</i>
  <i type="int" name="ISMEAR">     0</i>
  <i name="SIGMA">      0.05000000</i>
  <i type="logical" name="LVTOT"> T  </i>
  <i type="logical" name="LOPTICS"> T  </i>
  <v type="int" name="KPOINT_BSE">    -1     0     0     0</v>
  <i name="CSHIFT">      0.10000000</i>
  <i name="CSHIFT">      0.10000000</i>
 </incar>
 <structure name="primitive_cell" >
  <crystal>
   <varray name="basis" >
    <v>       3.17926782      -0.00000000       0.00000000 </v>
    <v>      -1.58963391       2.75332600       0.00000000 </v>
    <v>       0.00000000       0.00000000      13.74528273 </v>
   </varray>
   <i name="volume">    120.32016749 </i>
   <varray name="rec_basis" >
    <v>       0.31453783       0.18159855       0.00000000 </v>
    <v>       0.00000000       0.36319709       0.00000000 </v>
    <v>       0.00000000       0.00000000       0.07275223 </v>
   </varray>
  </crystal>
  <varray name="positions" >
   <v>      -0.33333300       0.33333300       0.25000000 </v>
   <v>       0.33333300      -0.33333300       0.13608426 </v>
   <v>       0.33333300      -0.33333300       0.36391574 </v>
   <v>      -0.33333300       0.33333300      -0.36391574 </v>
   <v>      -0.33333300       0.33333300      -0.13608426 </v>
   <v>       0.33333300      -0.33333300      -0.25000000 </v>
  </varray>
 </structure>
 <varray name="primitive_index" >
  <v type="int" >        1 </v>
  <v type="int" >        3 </v>
  <v type="int" >        5 </v>
  <v type="int" >        4 </v>
  <v type="int" >        6 </v>
  <v type="int" >        2 </v>
 </varray>
 <kpoints>
  <generation param="Gamma">
   <v type="int" name="divisions">       5        5        5 </v>
   <v name="usershift">      0.00000000       0.00000000       0.00000000 </v>
   <v name="genvec1">      0.20000000       0.00000000       0.00000000 </v>
   <v name="genvec2">     -0.00000000       0.20000000       0.00000000 </v>
   <v name="genvec3">      0.00000000       0.00000000       0.20000000 </v>
   <v name="shift">      0.00000000       0.00000000       0.00000000 </v>
  </generation>
  <varray name="kpointlist" >
   <v>       0.00000000       0.00000000       0.00000000 </v>
   <v>       0.20000000      -0.00000000       0.00000000 </v>
   <v>       0.40000000      -0.00000000       0.00000000 </v>
   <v>       0.20000000       0.20000000       0.00000000 </v>
   <v>       0.40000000       0.20000000       0.00000000 </v>
   <v>       0.00000000       0.00000000       0.20000000 </v>
   <v>       0.20000000      -0.00000000       0.20000000 </v>
   <v>       0.40000000      -0.00000000       0.20000000 </v>
   <v>       0.20000000       0.20000000       0.20000000 </v>
   <v>       0.40000000       0.20000000       0.20000000 </v>
   <v>       0.00000000       0.00000000       0.40000000 </v>
   <v>       0.20000000      -0.00000000       0.40000000 </v>
   <v>       0.40000000      -0.00000000       0.40000000 </v>
   <v>       0.20000000       0.20000000       0.40000000 </v>
   <v>       0.40000000       0.20000000       0.40000000 </v>
  </varray>
  <varray name="weights" >
   <v>       0.00800000 </v>
   <v>       0.04800000 </v>
   <v>       0.04800000 </v>
   <v>       0.04800000 </v>
   <v>       0.04800000 </v>
   <v>       0.01600000 </v>
   <v>       0.09600000 </v>
   <v>       0.09600000 </v>
   <v>       0.09600000 </v>
   <v>       0.09600000 </v>
   <v>       0.01600000 </v>
   <v>       0.09600000 </v>
   <v>       0.09600000 </v>
   <v>       0.09600000 </v>
   <v>       0.09600000 </v>
  </varray>
 </kpoints>
 <parameters>
  <separator name="general" >
   <i type="string" name="SYSTEM">2H-MoS2</i>
   <i type="logical" name="LCOMPAT"> F  </i>
  </separator>
  <separator name="electronic" >
   <i type="string" name="PREC">normal</i>
   <i name="ENMAX">    344.91400000</i>
   <i name="ENAUG">    964.74100000</i>
   <i name="EDIFF">      0.00010000</i>
   <i type="int" name="IALGO">    90</i>
   <i type="int" name="IWAVPR">    10</i>
   <i type="int" name="NBANDS">   128</i>
   <i name="NELECT">     52.00000000</i>
   <i type="int" name="TURBO">     0</i>
   <i type="int" name="IRESTART">     0</i>
   <i type="int" name="NREBOOT">     0</i>
   <i type="int" name="NMIN">     0</i>
   <i name="EREF">      0.00000000</i>
   <separator name="electronic smearing" >
    <i type="int" name="ISMEAR">     0</i>
    <i name="SIGMA">      0.05000000</i>
    <i name="KSPACING">      0.50000000</i>
    <i type="logical" name="KGAMMA"> T  </i>
   </separator>
   <separator name="electronic projectors" >
    <i type="logical" name="LREAL"> F  </i>
    <v name="ROPT">      0.00000000      0.00000000</v>
    <i type="int" name="LMAXPAW">  -100</i>
    <i type="int" name="LMAXMIX">     2</i>
    <i type="logical" name="NLSPLINE"> F  </i>
   </separator>
   <separator name="electronic startup" >
    <i type="int" name="ISTART">     1</i>
    <i type="int" name="ICHARG">     0</i>
    <i type="int" name="INIWAV">     1</i>
   </separator>
   <separator name="electronic spin" >
    <i type="int" name="ISPIN">     1</i>
    <i type="logical" name="LNONCOLLINEAR"> F  </i>
    <v name="MAGMOM">      1.00000000      1.00000000      1.00000000      1.00000000      1.00000000      1.00000000</v>
    <i name="NUPDOWN">     -1.00000000</i>
    <i type="logical" name="LSORBIT"> F  </i>
    <v name="SAXIS">      0.00000000      0.00000000      1.00000000</v>
    <i type="logical" name="LSPIRAL"> F  </i>
    <v name="QSPIRAL">      0.00000000      0.00000000      0.00000000</v>
    <i type="logical" name="LZEROZ"> F  </i>
   </separator>
   <separator name="electronic exchange-correlation" >
    <i type="logical" name="LASPH"> F  </i>
    <i type="logical" name="LMETAGGA"> F  </i>
   </separator>
   <separator name="electronic convergence" >
    <i type="int" name="NELM">    60</i>
    <i type="int" name="NELMDL">     0</i>
    <i type="int" name="NELMIN">     2</i>
    <i name="ENINI">    344.91400000</i>
    <separator name="electronic convergence detail" >
     <i type="logical" name="LDIAG"> T  </i>
     <i type="logical" name="LSUBROT"> F  </i>
     <i name="WEIMIN">      0.00000000</i>
     <i name="EBREAK">      0.00000020</i>
     <i name="DEPER">      0.30000000</i>
     <i type="int" name="NRMM">     4</i>
     <i name="TIME">      0.40000000</i>
    </separator>
   </separator>
   <separator name="electronic mixer" >
    <i name="AMIX">      0.40000000</i>
    <i name="BMIX">      1.00000000</i>
    <i name="AMIN">      0.10000000</i>
    <i name="AMIX_MAG">      1.60000000</i>
    <i name="BMIX_MAG">      1.00000000</i>
    <separator name="electronic mixer details" >
     <i type="int" name="IMIX">     4</i>
     <i type="logical" name="MIXFIRST"> F  </i>
     <i type="int" name="MAXMIX">   -45</i>
     <i name="WC">    100.00000000</i>
     <i type="int" name="INIMIX">     1</i>
     <i type="int" name="MIXPRE">     1</i>
     <i type="int" name="MREMOVE">     5</i>
    </separator>
   </separator>
   <separator name="electronic dipolcorrection" >
    <i type="logical" name="LDIPOL"> F  </i>
    <i type="logical" name="LMONO"> F  </i>
    <i type="int" name="IDIPOL">     0</i>
    <i name="EPSILON">      1.00000000</i>
    <v name="DIPOL">   -100.00000000   -100.00000000   -100.00000000</v>
    <i name="EFIELD">      0.00000000</i>
   </separator>
  </separator>
  <separator name="grids" >
   <i type="int" name="NGX">    14</i>
   <i type="int" name="NGY">    14</i>
   <i type="int" name="NGZ">    64</i>
   <i type="int" name="NGXF">    28</i>
   <i type="int" name="NGYF">    28</i>
   <i type="int" name="NGZF">   128</i>
   <i type="logical" name="ADDGRID"> F  </i>
  </separator>
  <separator name="ionic" >
   <i type="int" name="NSW">     0</i>
   <i type="int" name="IBRION">    -1</i>
   <i type="int" name="MDALGO">     0</i>
   <i type="int" name="ISIF">     2</i>
   <i name="PSTRESS">      0.00000000</i>
   <i name="EDIFFG">      0.00100000</i>
   <i type="int" name="NFREE">     0</i>
   <i name="POTIM">      0.50000000</i>
   <i name="SMASS">     -3.00000000</i>
   <i name="SCALEE">      1.00000000</i>
  </separator>
  <separator name="ionic md" >
   <i name="TEBEG">      0.00010000</i>
   <i name="TEEND">      0.00010000</i>
   <i type="int" name="NBLOCK">     1</i>
   <i type="int" name="KBLOCK">     1</i>
   <i type="int" name="NPACO">   256</i>
   <i name="APACO">     16.00000000</i>
  </separator>
  <separator name="symmetry" >
   <i type="int" name="ISYM">     2</i>
   <i name="SYMPREC">      0.00001000</i>
  </separator>
  <separator name="dos" >
   <i type="int" name="LORBIT">     0</i>
   <v name="RWIGS">     -1.00000000     -1.00000000</v>
   <i type="int" name="NEDOS">  3000</i>
   <i name="EMIN">     10.00000000</i>
   <i name="EMAX">    -10.00000000</i>
   <i name="EFERMI">      0.00000000</i>
  </separator>
  <separator name="writing" >
   <i type="int" name="NWRITE">     2</i>
   <i type="logical" name="LWAVE"> T  </i>
   <i type="logical" name="LDOWNSAMPLE"> F  </i>
   <i type="logical" name="LCHARG"> T  </i>
   <i type="logical" name="LPARD"> F  </i>
   <i type="logical" name="LVTOT"> T  </i>
   <i type="logical" name="LVHAR"> F  </i>
   <i type="logical" name="LELF"> F  </i>
   <i type="logical" name="LOPTICS"> T  </i>
   <v name="STM">      0.00000000      0.00000000      0.00000000      0.00000000      0.00000000      0.00000000      0.00000000</v>
  </separator>
  <separator name="performance" >
   <i type="int" name="NPAR">     4</i>
   <i type="int" name="NSIM">     4</i>
   <i type="int" name="NBLK">    -1</i>
   <i type="logical" name="LPLANE"> T  </i>
   <i type="logical" name="LSCALAPACK"> T  </i>
   <i type="logical" name="LSCAAWARE"> T  </i>
   <i type="logical" name="LSCALU"> F  </i>
   <i type="logical" name="LASYNC"> F  </i>
   <i type="logical" name="LORBITALREAL"> F  </i>
  </separator>
  <separator name="miscellaneous" >
   <i type="int" name="IDIOT">     3</i>
   <i type="int" name="ISPECIAL">     0</i>
   <i type="logical" name="LMUSIC"> F  </i>
   <v name="POMASS">     95.94000000     32.06600000</v>
   <v name="DARWINR">      0.00000000      0.00000000</v>
   <v name="DARWINV">      1.00000000      1.00000000</v>
   <i type="logical" name="LCORR"> T  </i>
  </separator>
  <i type="logical" name="GGA_COMPAT"> T  </i>
  <i type="logical" name="LBERRY"> F  </i>
  <i type="int" name="ICORELEVEL">     0</i>
  <i type="logical" name="LDAU"> F  </i>
  <i type="int" name="I_CONSTRAINED_M">     0</i>
  <separator name="electronic exchange-correlation" >
   <i type="string" name="GGA">--</i>
   <i type="int" name="VOSKOWN">     0</i>
   <i type="logical" name="LHFCALC"> F  </i>
   <i type="string" name="PRECFOCK"></i>
   <i type="logical" name="LSYMGRAD"> F  </i>
   <i type="logical" name="LHFONE"> F  </i>
   <i type="logical" name="LRHFCALC"> F  </i>
   <i type="logical" name="LTHOMAS"> F  </i>
   <i type="logical" name="LMODELHF"> F  </i>
   <i name="ENCUT4O">     -1.00000000</i>
   <i type="int" name="EXXOEP">     0</i>
   <i type="int" name="FOURORBIT">     0</i>
   <i name="AEXX">      0.00000000</i>
   <i name="HFALPHA">      0.00000000</i>
   <i name="MCALPHA">      0.00000000</i>
   <i name="ALDAX">      1.00000000</i>
   <i name="AGGAX">      1.00000000</i>
   <i name="ALDAC">      1.00000000</i>
   <i name="AGGAC">      1.00000000</i>
   <i type="int" name="NKREDX">     1</i>
   <i type="int" name="NKREDY">     1</i>
   <i type="int" name="NKREDZ">     1</i>
   <i type="logical" name="SHIFTRED"> F  </i>
   <i type="logical" name="ODDONLY"> F  </i>
   <i type="logical" name="EVENONLY"> F  </i>
   <i type="int" name="LMAXFOCK">     0</i>
   <i type="int" name="NMAXFOCKAE">     0</i>
   <i type="logical" name="LFOCKAEDFT"> F  </i>
   <i name="HFSCREEN">      0.00000000</i>
   <i name="HFSCREENC">      0.00000000</i>
   <i type="int" name="NBANDSGWLOW">     0</i>
  </separator>
  <separator name="vdW DFT" >
   <i type="logical" name="LUSE_VDW"> F  </i>
   <i name="Zab_VDW">     -0.84910000</i>
   <i name="PARAM1">      0.12340000</i>
   <i name="PARAM2">      1.00000000</i>
   <i name="PARAM3">      0.00000000</i>
  </separator>
  <separator name="model GW" >
   <i type="int" name="MODEL_GW">     0</i>
   <i name="MODEL_EPS0">     12.03201675</i>
   <i name="MODEL_ALPHA">      1.00000000</i>
  </separator>
  <separator name="linear response parameters" >
   <i type="logical" name="LEPSILON"> F  </i>
   <i type="logical" name="LRPA"> F  </i>
   <i type="logical" name="LNABLA"> F  </i>
   <i type="logical" name="LVEL"> F  </i>
   <i type="int" name="KINTER">     0</i>
   <i name="CSHIFT">      0.10000000</i>
   <i name="OMEGAMAX">     -1.00000000</i>
   <i name="DEG_THRESHOLD">      0.00200000</i>
   <i name="RTIME">     -0.10000000</i>
   <i name="WPLASMAI">      0.00000000</i>
   <v name="DFIELD">      0.00000000      0.00000000      0.00000000</v>
   <v name="WPLASMA">      0.00000000      0.00000000      0.00000000      0.00000000      0.00000000      0.00000000      0.00000000      0.00000000      0.00000000</v>
  </separator>
  <separator name="orbital magnetization" >
   <i type="logical" name="NUCIND"> F  </i>
   <v name="MAGPOS">      0.00000000      0.00000000      0.00000000</v>
   <i type="logical" name="LNICSALL"> T  </i>
   <i type="logical" name="ORBITALMAG"> F  </i>
   <i type="logical" name="LMAGBLOCH"> F  </i>
   <i type="logical" name="LCHIMAG"> F  </i>
   <i type="logical" name="LGAUGE"> T  </i>
   <i type="int" name="MAGATOM">     0</i>
   <v name="MAGDIPOL">      0.00000000      0.00000000      0.00000000</v>
   <v name="AVECCONST">      0.00000000      0.00000000      0.00000000</v>
  </separator>
  <separator name="response functions" >
   <i type="logical" name="LADDER"> F  </i>
   <i type="logical" name="LRPAFORCE"> F  </i>
   <i type="logical" name="LFXC"> F  </i>
   <i type="logical" name="LHARTREE"> T  </i>
   <i type="int" name="IBSE">     0</i>
   <v type="int" name="KPOINT">    -1     0     0     0</v>
   <i type="logical" name="LTCTE"> F  </i>
   <i type="logical" name="LTETE"> F  </i>
   <i type="logical" name="LTRIPLET"> F  </i>
   <i type="logical" name="LFXCEPS"> F  </i>
   <i type="logical" name="LFXHEG"> F  </i>
   <i type="int" name="NATURALO">     2</i>
   <i type="logical" name="L2ORDER"> F  </i>
   <i type="logical" name="LMP2LT"> F  </i>
   <i type="logical" name="LUSEW"> F  </i>
   <i name="ENCUTGW">     -2.00000000</i>
   <i name="ENCUTGWSOFT">     -2.00000000</i>
   <i name="ENCUTLF">     -1.00000000</i>
   <i type="int" name="LMAXMP2">    -1</i>
   <i name="SCISSOR">      0.00000000</i>
   <i type="int" name="NOMEGA">     0</i>
   <i type="int" name="NOMEGAR">     0</i>
   <i type="int" name="NBANDSGW">    -1</i>
   <i type="int" name="NBANDSO">    -1</i>
   <i type="int" name="NBANDSV">    -1</i>
   <i type="int" name="NELM">     1</i>
   <i type="int" name="NELMHF">     1</i>
   <i type="int" name="DIM">     3</i>
   <i type="int" name="ANTIRES">     0</i>
   <i name="OMEGAMAX">    -30.00000000</i>
   <i name="OMEGAMIN">    -30.00000000</i>
   <i name="OMEGATL">   -200.00000000</i>
   <i type="int" name="OMEGAGRID">   140</i>
   <i name="CSHIFT">      0.10000000</i>
   <i type="logical" name="SELFENERGY"> F  </i>
   <i type="logical" name="LSPECTRAL"> F  </i>
   <i type="logical" name="LSPECTRALGW"> F  </i>
   <i type="logical" name="LSINGLES"> F  </i>
   <i type="logical" name="LFERMIGW"> F  </i>
   <i type="logical" name="ODDONLYGW"> F  </i>
   <i type="logical" name="EVENONLYGW"> F  </i>
   <i type="int" name="NKREDLFX">     1</i>
   <i type="int" name="NKREDLFY">     1</i>
   <i type="int" name="NKREDLFZ">     1</i>
   <i type="int" name="MAXMEM">  2800</i>
   <i type="int" name="TELESCOPE">     0</i>
   <i type="int" name="TAUPAR">     1</i>
   <i type="int" name="OMEGAPAR">    -1</i>
   <i name="LAMBDA">      1.00000000</i>
  </separator>
  <separator name="External order field" >
   <i name="OFIELD_KAPPA">      0.00000000</i>
   <v name="OFIELD_K">      0.00000000      0.00000000      0.00000000</v>
   <i name="OFIELD_Q6_NEAR">      0.00000000</i>
   <i name="OFIELD_Q6_FAR">      0.00000000</i>
   <i name="OFIELD_A">      0.00000000</i>
  </separator>
 </parameters>
 <atominfo>
  <atoms>       6 </atoms>
  <types>       2 </types>
  <array name="atoms" >
   <dimension dim="1">ion</dimension>
   <field type="string">element</field>
   <field type="int">atomtype</field>
   <set>
    <rc><c>Mo</c><c>   1</c></rc>
    <rc><c>Mo</c><c>   1</c></rc>
    <rc><c>S </c><c>   2</c></rc>
    <rc><c>S </c><c>   2</c></rc>
    <rc><c>S </c><c>   2</c></rc>
    <rc><c>S </c><c>   2</c></rc>
   </set>
  </array>
  <array name="atomtypes" >
   <dimension dim="1">type</dimension>
   <field type="int">atomspertype</field>
   <field type="string">element</field>
   <field>mass</field>
   <field>valence</field>
   <field type="string">pseudopotential</field>
   <set>
    <rc><c>   2</c><c>Mo</c><c>     95.94000000</c><c>     14.00000000</c><c>  PAW_PBE Mo_sv_GW 05Dec2013            </c></rc>
    <rc><c>   4</c><c>S </c><c>     32.06600000</c><c>      6.00000000</c><c>  PAW_PBE S_GW 19Mar2012                </c></rc>
   </set>
  </array>
 </atominfo>
 <structure name="initialpos" >
  <crystal>
   <varray name="basis" >
    <v>       3.17926782      -0.00000000       0.00000000 </v>
    <v>      -1.58963391       2.75332600       0.00000000 </v>
    <v>       0.00000000       0.00000000      13.74528273 </v>
   </varray>
   <i name="volume">    120.32016749 </i>
   <varray name="rec_basis" >
    <v>       0.31453783       0.18159855       0.00000000 </v>
    <v>       0.00000000       0.36319709       0.00000000 </v>
    <v>       0.00000000       0.00000000       0.07275223 </v>
   </varray>
  </crystal>
  <varray name="positions" >
   <v>       0.66666700       0.33333300       0.25000000 </v>
   <v>       0.33333300       0.66666700       0.75000000 </v>
   <v>       0.33333300       0.66666700       0.13608426 </v>
   <v>       0.66666700       0.33333300       0.63608426 </v>
   <v>       0.33333300       0.66666700       0.36391574 </v>
   <v>       0.66666700       0.33333300       0.86391574 </v>
  </varray>
 </structure>
 <calculation>
  <scstep>
   <time name="diag">   23.02   23.01</time>
   <time name="total">   23.04   23.04</time>
   <energy>
    <i name="alphaZ">    158.93313713 </i>
    <i name="ewald">  -2696.56123166 </i>
    <i name="hartreedc">  -1977.07790431 </i>
    <i name="XCdc">    165.39436737 </i>
    <i name="pawpsdc">   3848.76689613 </i>
    <i name="pawaedc">  -3810.48498500 </i>
    <i name="eentropy">     -0.00000000 </i>
    <i name="bandstr">   -564.25509379 </i>
    <i name="atom">   4830.08457801 </i>
    <i name="e_fr_energy">    -45.20023612 </i>
    <i name="e_wo_entrp">    -45.20023612 </i>
    <i name="e_0_energy">    -45.20023612 </i>
   </energy>
  </scstep>
  <scstep>
   <time name="diag">   23.11   23.18</time>
   <time name="total">   23.14   23.21</time>
   <energy>
    <i name="e_fr_energy">    -45.19835510 </i>
    <i name="e_wo_entrp">    -45.19835510 </i>
    <i name="e_0_energy">    -45.19835510 </i>
   </energy>
  </scstep>
  <scstep>
   <time name="diag">   23.14   23.21</time>
   <time name="total">   23.16   23.23</time>
   <energy>
    <i name="e_fr_energy">    -45.19653250 </i>
    <i name="e_wo_entrp">    -45.19653250 </i>
    <i name="e_0_energy">    -45.19653250 </i>
   </energy>
  </scstep>
  <scstep>
   <time name="diag">   23.15   23.23</time>
   <time name="total">   23.15   23.24</time>
   <energy>
    <i name="alphaZ">    158.93313713 </i>
    <i name="ewald">  -2696.56123166 </i>
    <i name="hartreedc">  -1979.11640150 </i>
    <i name="XCdc">    165.47068458 </i>
    <i name="pawpsdc">   3854.13062651 </i>
    <i name="pawaedc">  -3815.65753587 </i>
    <i name="eentropy">     -0.00000000 </i>
    <i name="bandstr">   -562.48030747 </i>
    <i name="atom">   4830.08457801 </i>
    <i name="e_fr_energy">    -45.19645026 </i>
    <i name="e_wo_entrp">    -45.19645026 </i>
    <i name="e_0_energy">    -45.19645026 </i>
   </energy>
  </scstep>
  <structure>
   <crystal>
    <varray name="basis" >
     <v>       3.17926782      -0.00000000       0.00000000 </v>
     <v>      -1.58963391       2.75332600       0.00000000 </v>
     <v>       0.00000000       0.00000000      13.74528273 </v>
    </varray>
    <i name="volume">    120.32016749 </i>
    <varray name="rec_basis" >
     <v>       0.31453783       0.18159855       0.00000000 </v>
     <v>       0.00000000       0.36319709       0.00000000 </v>
     <v>       0.00000000       0.00000000       0.07275223 </v>
    </varray>
   </crystal>
   <varray name="positions" >
    <v>       0.66666700       0.33333300       0.25000000 </v>
    <v>       0.33333300       0.66666700       0.75000000 </v>
    <v>       0.33333300       0.66666700       0.13608426 </v>
    <v>       0.66666700       0.33333300       0.63608426 </v>
    <v>       0.33333300       0.66666700       0.36391574 </v>
    <v>       0.66666700       0.33333300       0.86391574 </v>
   </varray>
  </structure>
  <varray name="forces" >
   <v>       0.00000000       0.00000000      -0.00000000 </v>
   <v>      -0.00000000      -0.00000000      -0.00000000 </v>
   <v>      -0.00000000      -0.00000000      -0.00064544 </v>
   <v>       0.00000000      -0.00000000      -0.00064544 </v>
   <v>       0.00000000       0.00000000       0.00064544 </v>
   <v>       0.00000000      -0.00000000       0.00064544 </v>
  </varray>
  <varray name="stress" >
   <v>      -6.55158845       0.00000000       0.00000000 </v>
   <v>      -0.00000000      -6.55158515      -0.00000000 </v>
   <v>       0.00000000      -0.00000000     -10.10230104 </v>
  </varray>
  <energy>
   <i name="e_fr_energy">    -45.19645026 </i>
   <i name="e_wo_entrp">    -45.19645026 </i>
   <i name="e_0_energy">     -0.00000000 </i>
  </energy>
  <time name="totalsc">   93.34   93.66</time>
  <eigenvalues>
   <array>
    <dimension dim="1">band</dimension>
    <dimension dim="2">kpoint</dimension>
    <dimension dim="3">spin</dimension>
    <field>eigene</field>
    <field>occ</field>
    <set>
     <set comment="spin 1">
      <set comment="kpoint 1">
       <r>  -55.4817    1.0000 </r>
       <r>  -55.4816    1.0000 </r>
       <r>  -29.6170    1.0000 </r>
       <r>  -29.6163    1.0000 </r>
       <r>  -29.4047    1.0000 </r>
       <r>  -29.4047    1.0000 </r>
       <r>  -29.4047    1.0000 </r>
       <r>  -29.4046    1.0000 </r>
       <r>   -8.7137    1.0000 </r>
       <r>   -8.6511    1.0000 </r>
       <r>   -7.4437    1.0000 </r>
       <r>   -7.3348    1.0000 </r>
       <r>   -0.3931    1.0000 </r>
       <r>   -0.0140    1.0000 </r>
       <r>    2.8123    1.0000 </r>
       <r>    2.8125    1.0000 </r>
       <r>    2.8146    1.0000 </r>
       <r>    2.8148    1.0000 </r>
       <r>    3.1104    1.0000 </r>
       <r>    3.9130    1.0000 </r>
       <r>    3.9130    1.0000 </r>
       <r>    3.9214    1.0000 </r>
       <r>    3.9214    1.0000 </r>
       <r>    4.1915    1.0000 </r>
       <r>    5.0946    1.0000 </r>
       <r>    5.7417    1.0000 </r>
       <r>    8.1641    0.0000 </r>
       <r>    8.1643    0.0000 </r>
       <r>    8.1705    0.0000 </r>
       <r>    8.1707    0.0000 </r>
       <r>    8.3924    0.0000 </r>
       <r>    8.3924    0.0000 </r>
       <r>    8.4275    0.0000 </r>
       <r>    8.4276    0.0000 </r>
       <r>   11.4358    0.0000 </r>
       <r>   11.6732    0.0000 </r>
       <r>   13.0756    0.0000 </r>
       <r>   13.6805    0.0000 </r>
       <r>   14.3560    0.0000 </r>
       <r>   14.5152    0.0000 </r>
       <r>   16.1064    0.0000 </r>
       <r>   16.1069    0.0000 </r>
       <r>   16.2241    0.0000 </r>
       <r>   16.2246    0.0000 </r>
       <r>   17.4177    0.0000 </r>
       <r>   18.0346    0.0000 </r>
       <r>   18.0351    0.0000 </r>
       <r>   18.2923    0.0000 </r>
       <r>   18.2927    0.0000 </r>
       <r>   18.4294    0.0000 </r>
       <r>   19.6574    0.0000 </r>
       <r>   21.2401    0.0000 </r>
       <r>   21.2442    0.0000 </r>
       <r>   21.2446    0.0000 </r>
       <r>   21.3474    0.0000 </r>
       <r>   21.3476    0.0000 </r>
       <r>   21.5430    0.0000 </r>
       <r>   21.5435    0.0000 </r>
       <r>   21.6894    0.0000 </r>
       <r>   21.9544    0.0000 </r>
       <r>   21.9545    0.0000 </r>
       <r>   22.2978    0.0000 </r>
       <r>   23.0023    0.0000 </r>
       <r>   24.7996    0.0000 </r>
       <r>   24.8278    0.0000 </r>
       <r>   25.5728    0.0000 </r>
       <r>   25.8487    0.0000 </r>
       <r>   27.7508    0.0000 </r>
       <r>   27.7508    0.0000 </r>
       <r>   29.1139    0.0000 </r>
       <r>   29.1140    0.0000 </r>
       <r>   29.1763    0.0000 </r>
       <r>   30.0807    0.0000 </r>
       <r>   30.0807    0.0000 </r>
       <r>   30.6413    0.0000 </r>
       <r>   30.6417    0.0000 </r>
       <r>   31.2857    0.0000 </r>
       <r>   31.3066    0.0000 </r>
       <r>   31.7681    0.0000 </r>
       <r>   31.7682    0.0000 </r>
       <r>   32.1419    0.0000 </r>
       <r>   32.3944    0.0000 </r>
       <r>   32.5243    0.0000 </r>
       <r>   33.0168    0.0000 </r>
       <r>   33.0171    0.0000 </r>
       <r>   33.6048    0.0000 </r>
       <r>   35.1295    0.0000 </r>
       <r>   35.1295    0.0000 </r>
       <r>   35.2800    0.0000 </r>
       <r>   35.2802    0.0000 </r>
       <r>   36.5858    0.0000 </r>
       <r>   36.5862    0.0000 </r>
       <r>   37.5114    0.0000 </r>
       <r>   37.6053    0.0000 </r>
       <r>   37.6056    0.0000 </r>
       <r>   37.8472    0.0000 </r>
       <r>   38.3986    0.0000 </r>
       <r>   38.3986    0.0000 </r>
       <r>   38.4013    0.0000 </r>
       <r>   39.0961    0.0000 </r>
       <r>   39.0974    0.0000 </r>
       <r>   39.5495    0.0000 </r>
       <r>   40.2942    0.0000 </r>
       <r>   40.3790    0.0000 </r>
       <r>   40.3803    0.0000 </r>
       <r>   40.9483    0.0000 </r>
       <r>   41.1912    0.0000 </r>
       <r>   41.2025    0.0000 </r>
       <r>   42.1343    0.0000 </r>
       <r>   42.1376    0.0000 </r>
       <r>   42.9735    0.0000 </r>
       <r>   42.9759    0.0000 </r>
       <r>   43.5627    0.0000 </r>
       <r>   43.5644    0.0000 </r>
       <r>   43.8381    0.0000 </r>
       <r>   44.0080    0.0000 </r>
       <r>   44.9589    0.0000 </r>
       <r>   45.8861    0.0000 </r>
       <r>   46.7182    0.0000 </r>
       <r>   46.7183    0.0000 </r>
       <r>   46.7844    0.0000 </r>
       <r>   46.7871    0.0000 </r>
       <r>   47.0239    0.0000 </r>
       <r>   47.0252    0.0000 </r>
       <r>   47.4644    0.0000 </r>
       <r>   48.9968    0.0000 </r>
       <r>   48.9987    0.0000 </r>
       <r>   49.9968    0.0000 </r>
      </set>
      <set comment="kpoint 2">
       <r>  -55.4682    1.0000 </r>
       <r>  -55.4681    1.0000 </r>
       <r>  -29.5905    1.0000 </r>
       <r>  -29.5897    1.0000 </r>
       <r>  -29.5353    1.0000 </r>
       <r>  -29.5347    1.0000 </r>
       <r>  -29.4344    1.0000 </r>
       <r>  -29.4340    1.0000 </r>
       <r>   -8.1583    1.0000 </r>
       <r>   -8.0993    1.0000 </r>
       <r>   -7.2044    1.0000 </r>
       <r>   -7.1152    1.0000 </r>
       <r>    0.1591    1.0000 </r>
       <r>    0.5000    1.0000 </r>
       <r>    1.8250    1.0000 </r>
       <r>    1.8640    1.0000 </r>
       <r>    2.0589    1.0000 </r>
       <r>    2.3693    1.0000 </r>
       <r>    3.1878    1.0000 </r>
       <r>    3.2004    1.0000 </r>
       <r>    3.3747    1.0000 </r>
       <r>    3.3835    1.0000 </r>
       <r>    4.0492    1.0000 </r>
       <r>    4.4961    1.0000 </r>
       <r>    4.8592    1.0000 </r>
       <r>    5.0297    1.0000 </r>
       <r>    7.4075    0.0000 </r>
       <r>    7.8751    0.0000 </r>
       <r>    7.8861    0.0000 </r>
       <r>    7.9369    0.0000 </r>
       <r>    7.9732    0.0000 </r>
       <r>    8.2281    0.0000 </r>
       <r>    8.9106    0.0000 </r>
       <r>    8.9557    0.0000 </r>
       <r>   12.8396    0.0000 </r>
       <r>   13.6092    0.0000 </r>
       <r>   13.8543    0.0000 </r>
       <r>   14.2622    0.0000 </r>
       <r>   14.9514    0.0000 </r>
       <r>   15.1352    0.0000 </r>
       <r>   15.1379    0.0000 </r>
       <r>   15.3741    0.0000 </r>
       <r>   16.8623    0.0000 </r>
       <r>   17.2536    0.0000 </r>
       <r>   17.2646    0.0000 </r>
       <r>   17.7341    0.0000 </r>
       <r>   17.7543    0.0000 </r>
       <r>   17.8224    0.0000 </r>
       <r>   18.3419    0.0000 </r>
       <r>   18.7997    0.0000 </r>
       <r>   18.9336    0.0000 </r>
       <r>   19.1431    0.0000 </r>
       <r>   19.4833    0.0000 </r>
       <r>   19.6526    0.0000 </r>
       <r>   20.4713    0.0000 </r>
       <r>   20.9182    0.0000 </r>
       <r>   22.1020    0.0000 </r>
       <r>   22.2914    0.0000 </r>
       <r>   22.4227    0.0000 </r>
       <r>   22.8949    0.0000 </r>
       <r>   25.0190    0.0000 </r>
       <r>   25.0725    0.0000 </r>
       <r>   25.2455    0.0000 </r>
       <r>   25.4469    0.0000 </r>
       <r>   26.1105    0.0000 </r>
       <r>   26.4985    0.0000 </r>
       <r>   26.8440    0.0000 </r>
       <r>   27.5724    0.0000 </r>
       <r>   27.5999    0.0000 </r>
       <r>   27.7937    0.0000 </r>
       <r>   28.5968    0.0000 </r>
       <r>   28.7770    0.0000 </r>
       <r>   28.7966    0.0000 </r>
       <r>   29.4789    0.0000 </r>
       <r>   29.5661    0.0000 </r>
       <r>   29.8450    0.0000 </r>
       <r>   30.7883    0.0000 </r>
       <r>   31.7226    0.0000 </r>
       <r>   31.9087    0.0000 </r>
       <r>   32.4614    0.0000 </r>
       <r>   32.6808    0.0000 </r>
       <r>   32.8106    0.0000 </r>
       <r>   32.9465    0.0000 </r>
       <r>   33.7077    0.0000 </r>
       <r>   33.8336    0.0000 </r>
       <r>   35.0244    0.0000 </r>
       <r>   35.4042    0.0000 </r>
       <r>   35.4677    0.0000 </r>
       <r>   35.5686    0.0000 </r>
       <r>   36.0675    0.0000 </r>
       <r>   36.3332    0.0000 </r>
       <r>   36.6187    0.0000 </r>
       <r>   36.7065    0.0000 </r>
       <r>   36.9023    0.0000 </r>
       <r>   37.6647    0.0000 </r>
       <r>   37.7080    0.0000 </r>
       <r>   38.2913    0.0000 </r>
       <r>   38.4863    0.0000 </r>
       <r>   38.5759    0.0000 </r>
       <r>   38.6631    0.0000 </r>
       <r>   38.8156    0.0000 </r>
       <r>   39.2162    0.0000 </r>
       <r>   39.3003    0.0000 </r>
       <r>   39.3959    0.0000 </r>
       <r>   39.5860    0.0000 </r>
       <r>   39.7190    0.0000 </r>
       <r>   42.1852    0.0000 </r>
       <r>   42.3847    0.0000 </r>
       <r>   42.4566    0.0000 </r>
       <r>   42.6411    0.0000 </r>
       <r>   43.1562    0.0000 </r>
       <r>   43.3703    0.0000 </r>
       <r>   43.6889    0.0000 </r>
       <r>   43.9142    0.0000 </r>
       <r>   44.2445    0.0000 </r>
       <r>   44.4287    0.0000 </r>
       <r>   44.6752    0.0000 </r>
       <r>   45.4804    0.0000 </r>
       <r>   45.8319    0.0000 </r>
       <r>   46.4099    0.0000 </r>
       <r>   46.8551    0.0000 </r>
       <r>   47.0860    0.0000 </r>
       <r>   47.4379    0.0000 </r>
       <r>   47.6729    0.0000 </r>
       <r>   48.0533    0.0000 </r>
       <r>   48.3931    0.0000 </r>
       <r>   48.6005    0.0000 </r>
       <r>   49.4296    0.0000 </r>
      </set>
      <set comment="kpoint 3">
       <r>  -55.4472    1.0000 </r>
       <r>  -55.4471    1.0000 </r>
       <r>  -29.7425    1.0000 </r>
       <r>  -29.7422    1.0000 </r>
       <r>  -29.5485    1.0000 </r>
       <r>  -29.5483    1.0000 </r>
       <r>  -29.4829    1.0000 </r>
       <r>  -29.4829    1.0000 </r>
       <r>   -7.0558    1.0000 </r>
       <r>   -7.0194    1.0000 </r>
       <r>   -6.7418    1.0000 </r>
       <r>   -6.7019    1.0000 </r>
       <r>   -0.1768    1.0000 </r>
       <r>   -0.0886    1.0000 </r>
       <r>    0.8023    1.0000 </r>
       <r>    0.8980    1.0000 </r>
       <r>    1.3371    1.0000 </r>
       <r>    1.5512    1.0000 </r>
       <r>    2.3657    1.0000 </r>
       <r>    2.3810    1.0000 </r>
       <r>    3.5209    1.0000 </r>
       <r>    3.6969    1.0000 </r>
       <r>    4.2854    1.0000 </r>
       <r>    4.3197    1.0000 </r>
       <r>    4.4968    1.0000 </r>
       <r>    4.6029    1.0000 </r>
       <r>    7.6061    0.0000 </r>
       <r>    7.6296    0.0000 </r>
       <r>    7.8335    0.0000 </r>
       <r>    8.0904    0.0000 </r>
       <r>    8.8857    0.0000 </r>
       <r>    9.3430    0.0000 </r>
       <r>    9.5729    0.0000 </r>
       <r>    9.6793    0.0000 </r>
       <r>   12.0540    0.0000 </r>
       <r>   12.3331    0.0000 </r>
       <r>   13.1212    0.0000 </r>
       <r>   13.2966    0.0000 </r>
       <r>   13.3216    0.0000 </r>
       <r>   14.4736    0.0000 </r>
       <r>   14.5815    0.0000 </r>
       <r>   15.3898    0.0000 </r>
       <r>   15.9604    0.0000 </r>
       <r>   16.7695    0.0000 </r>
       <r>   16.8614    0.0000 </r>
       <r>   17.2917    0.0000 </r>
       <r>   18.2707    0.0000 </r>
       <r>   18.4555    0.0000 </r>
       <r>   19.4969    0.0000 </r>
       <r>   19.8365    0.0000 </r>
       <r>   20.5542    0.0000 </r>
       <r>   20.9237    0.0000 </r>
       <r>   20.9706    0.0000 </r>
       <r>   21.5774    0.0000 </r>
       <r>   21.8418    0.0000 </r>
       <r>   22.1747    0.0000 </r>
       <r>   23.0173    0.0000 </r>
       <r>   23.1336    0.0000 </r>
       <r>   23.1709    0.0000 </r>
       <r>   23.4134    0.0000 </r>
       <r>   24.2203    0.0000 </r>
       <r>   24.3557    0.0000 </r>
       <r>   24.6231    0.0000 </r>
       <r>   25.1096    0.0000 </r>
       <r>   26.0438    0.0000 </r>
       <r>   27.3779    0.0000 </r>
       <r>   27.4790    0.0000 </r>
       <r>   27.7202    0.0000 </r>
       <r>   27.8367    0.0000 </r>
       <r>   28.6674    0.0000 </r>
       <r>   29.0101    0.0000 </r>
       <r>   29.3471    0.0000 </r>
       <r>   30.3497    0.0000 </r>
       <r>   30.3845    0.0000 </r>
       <r>   30.9130    0.0000 </r>
       <r>   30.9988    0.0000 </r>
       <r>   31.1849    0.0000 </r>
       <r>   31.2909    0.0000 </r>
       <r>   31.4682    0.0000 </r>
       <r>   31.9248    0.0000 </r>
       <r>   32.2702    0.0000 </r>
       <r>   32.5278    0.0000 </r>
       <r>   32.8205    0.0000 </r>
       <r>   33.3190    0.0000 </r>
       <r>   33.4047    0.0000 </r>
       <r>   33.9756    0.0000 </r>
       <r>   34.3855    0.0000 </r>
       <r>   34.9263    0.0000 </r>
       <r>   35.7634    0.0000 </r>
       <r>   36.0076    0.0000 </r>
       <r>   36.3496    0.0000 </r>
       <r>   36.4742    0.0000 </r>
       <r>   36.8844    0.0000 </r>
       <r>   37.0535    0.0000 </r>
       <r>   37.2881    0.0000 </r>
       <r>   37.8994    0.0000 </r>
       <r>   38.1633    0.0000 </r>
       <r>   38.6276    0.0000 </r>
       <r>   39.0071    0.0000 </r>
       <r>   39.4425    0.0000 </r>
       <r>   39.5324    0.0000 </r>
       <r>   39.6907    0.0000 </r>
       <r>   39.9026    0.0000 </r>
       <r>   40.4507    0.0000 </r>
       <r>   40.7864    0.0000 </r>
       <r>   40.8758    0.0000 </r>
       <r>   42.0386    0.0000 </r>
       <r>   42.0854    0.0000 </r>
       <r>   42.6187    0.0000 </r>
       <r>   42.6991    0.0000 </r>
       <r>   42.9872    0.0000 </r>
       <r>   43.2554    0.0000 </r>
       <r>   44.0503    0.0000 </r>
       <r>   44.0967    0.0000 </r>
       <r>   44.2689    0.0000 </r>
       <r>   44.4530    0.0000 </r>
       <r>   44.5615    0.0000 </r>
       <r>   45.3689    0.0000 </r>
       <r>   45.5904    0.0000 </r>
       <r>   45.7349    0.0000 </r>
       <r>   45.7774    0.0000 </r>
       <r>   46.5272    0.0000 </r>
       <r>   46.8777    0.0000 </r>
       <r>   47.1034    0.0000 </r>
       <r>   47.5631    0.0000 </r>
       <r>   47.8815    0.0000 </r>
       <r>   48.1193    0.0000 </r>
       <r>   48.2389    0.0000 </r>
      </set>
      <set comment="kpoint 4">
       <r>  -55.4512    1.0000 </r>
       <r>  -55.4511    1.0000 </r>
       <r>  -29.6704    1.0000 </r>
       <r>  -29.6702    1.0000 </r>
       <r>  -29.5564    1.0000 </r>
       <r>  -29.5563    1.0000 </r>
       <r>  -29.5079    1.0000 </r>
       <r>  -29.5073    1.0000 </r>
       <r>   -7.3045    1.0000 </r>
       <r>   -7.2589    1.0000 </r>
       <r>   -6.8334    1.0000 </r>
       <r>   -6.7779    1.0000 </r>
       <r>    0.3099    1.0000 </r>
       <r>    0.4325    1.0000 </r>
       <r>    1.1808    1.0000 </r>
       <r>    1.2268    1.0000 </r>
       <r>    1.6319    1.0000 </r>
       <r>    1.7675    1.0000 </r>
       <r>    1.9590    1.0000 </r>
       <r>    2.2148    1.0000 </r>
       <r>    3.1707    1.0000 </r>
       <r>    3.1784    1.0000 </r>
       <r>    4.1369    1.0000 </r>
       <r>    4.2028    1.0000 </r>
       <r>    4.6315    1.0000 </r>
       <r>    4.6338    1.0000 </r>
       <r>    7.1815    0.0000 </r>
       <r>    7.6437    0.0000 </r>
       <r>    7.9216    0.0000 </r>
       <r>    8.0200    0.0000 </r>
       <r>    8.1157    0.0000 </r>
       <r>    8.4550    0.0000 </r>
       <r>    9.6533    0.0000 </r>
       <r>    9.9478    0.0000 </r>
       <r>   13.4746    0.0000 </r>
       <r>   13.6656    0.0000 </r>
       <r>   13.8841    0.0000 </r>
       <r>   14.0610    0.0000 </r>
       <r>   14.6612    0.0000 </r>
       <r>   15.1436    0.0000 </r>
       <r>   15.4952    0.0000 </r>
       <r>   15.7348    0.0000 </r>
       <r>   16.4659    0.0000 </r>
       <r>   16.4895    0.0000 </r>
       <r>   16.7744    0.0000 </r>
       <r>   17.1067    0.0000 </r>
       <r>   17.6298    0.0000 </r>
       <r>   17.6950    0.0000 </r>
       <r>   17.7349    0.0000 </r>
       <r>   18.0107    0.0000 </r>
       <r>   18.3617    0.0000 </r>
       <r>   19.9227    0.0000 </r>
       <r>   20.4577    0.0000 </r>
       <r>   20.7191    0.0000 </r>
       <r>   21.3926    0.0000 </r>
       <r>   21.4931    0.0000 </r>
       <r>   22.0571    0.0000 </r>
       <r>   23.5329    0.0000 </r>
       <r>   23.7941    0.0000 </r>
       <r>   24.5609    0.0000 </r>
       <r>   25.0304    0.0000 </r>
       <r>   25.3089    0.0000 </r>
       <r>   25.4233    0.0000 </r>
       <r>   25.6884    0.0000 </r>
       <r>   26.4180    0.0000 </r>
       <r>   26.4479    0.0000 </r>
       <r>   27.8286    0.0000 </r>
       <r>   28.4040    0.0000 </r>
       <r>   28.6922    0.0000 </r>
       <r>   28.7081    0.0000 </r>
       <r>   29.1561    0.0000 </r>
       <r>   29.2390    0.0000 </r>
       <r>   29.3114    0.0000 </r>
       <r>   29.4495    0.0000 </r>
       <r>   30.3019    0.0000 </r>
       <r>   30.4083    0.0000 </r>
       <r>   30.7360    0.0000 </r>
       <r>   30.8194    0.0000 </r>
       <r>   30.9761    0.0000 </r>
       <r>   31.9991    0.0000 </r>
       <r>   32.7835    0.0000 </r>
       <r>   32.8830    0.0000 </r>
       <r>   33.4808    0.0000 </r>
       <r>   33.9024    0.0000 </r>
       <r>   34.2526    0.0000 </r>
       <r>   34.3289    0.0000 </r>
       <r>   34.6395    0.0000 </r>
       <r>   34.6894    0.0000 </r>
       <r>   35.2954    0.0000 </r>
       <r>   35.5648    0.0000 </r>
       <r>   36.1578    0.0000 </r>
       <r>   36.2287    0.0000 </r>
       <r>   36.2920    0.0000 </r>
       <r>   36.7829    0.0000 </r>
       <r>   37.2107    0.0000 </r>
       <r>   37.5228    0.0000 </r>
       <r>   37.5617    0.0000 </r>
       <r>   37.7932    0.0000 </r>
       <r>   39.0064    0.0000 </r>
       <r>   39.8155    0.0000 </r>
       <r>   39.8758    0.0000 </r>
       <r>   40.0691    0.0000 </r>
       <r>   40.2799    0.0000 </r>
       <r>   40.6450    0.0000 </r>
       <r>   40.8460    0.0000 </r>
       <r>   41.0425    0.0000 </r>
       <r>   41.7583    0.0000 </r>
       <r>   41.9193    0.0000 </r>
       <r>   42.7789    0.0000 </r>
       <r>   42.7800    0.0000 </r>
       <r>   43.0771    0.0000 </r>
       <r>   43.3683    0.0000 </r>
       <r>   43.4120    0.0000 </r>
       <r>   44.1472    0.0000 </r>
       <r>   44.1473    0.0000 </r>
       <r>   44.4808    0.0000 </r>
       <r>   44.7059    0.0000 </r>
       <r>   45.3629    0.0000 </r>
       <r>   45.8454    0.0000 </r>
       <r>   46.3703    0.0000 </r>
       <r>   46.6740    0.0000 </r>
       <r>   46.8693    0.0000 </r>
       <r>   47.2251    0.0000 </r>
       <r>   47.4519    0.0000 </r>
       <r>   47.7468    0.0000 </r>
       <r>   47.8958    0.0000 </r>
       <r>   48.0455    0.0000 </r>
       <r>   48.2631    0.0000 </r>
      </set>
      <set comment="kpoint 5">
       <r>  -55.4405    1.0000 </r>
       <r>  -55.4405    1.0000 </r>
       <r>  -29.7344    1.0000 </r>
       <r>  -29.7341    1.0000 </r>
       <r>  -29.5707    1.0000 </r>
       <r>  -29.5704    1.0000 </r>
       <r>  -29.5351    1.0000 </r>
       <r>  -29.5347    1.0000 </r>
       <r>   -6.6579    1.0000 </r>
       <r>   -6.6420    1.0000 </r>
       <r>   -6.5441    1.0000 </r>
       <r>   -6.5290    1.0000 </r>
       <r>    0.1615    1.0000 </r>
       <r>    0.2261    1.0000 </r>
       <r>    0.2263    1.0000 </r>
       <r>    0.2477    1.0000 </r>
       <r>    1.4216    1.0000 </r>
       <r>    1.5741    1.0000 </r>
       <r>    2.2423    1.0000 </r>
       <r>    2.3872    1.0000 </r>
       <r>    2.6538    1.0000 </r>
       <r>    2.7250    1.0000 </r>
       <r>    3.4067    1.0000 </r>
       <r>    3.5381    1.0000 </r>
       <r>    5.1218    1.0000 </r>
       <r>    5.1786    1.0000 </r>
       <r>    7.4229    0.0000 </r>
       <r>    7.4610    0.0000 </r>
       <r>    8.5553    0.0000 </r>
       <r>    8.5567    0.0000 </r>
       <r>    8.5759    0.0000 </r>
       <r>    8.8825    0.0000 </r>
       <r>    9.7658    0.0000 </r>
       <r>   10.1179    0.0000 </r>
       <r>   12.0034    0.0000 </r>
       <r>   12.1373    0.0000 </r>
       <r>   13.7487    0.0000 </r>
       <r>   14.3912    0.0000 </r>
       <r>   14.5299    0.0000 </r>
       <r>   15.1982    0.0000 </r>
       <r>   15.2791    0.0000 </r>
       <r>   15.4638    0.0000 </r>
       <r>   15.7071    0.0000 </r>
       <r>   15.8059    0.0000 </r>
       <r>   16.4025    0.0000 </r>
       <r>   17.1639    0.0000 </r>
       <r>   17.7031    0.0000 </r>
       <r>   18.6614    0.0000 </r>
       <r>   18.9222    0.0000 </r>
       <r>   19.5853    0.0000 </r>
       <r>   19.6256    0.0000 </r>
       <r>   19.6376    0.0000 </r>
       <r>   20.8402    0.0000 </r>
       <r>   21.0262    0.0000 </r>
       <r>   21.1450    0.0000 </r>
       <r>   21.6663    0.0000 </r>
       <r>   22.4510    0.0000 </r>
       <r>   24.1587    0.0000 </r>
       <r>   24.2402    0.0000 </r>
       <r>   24.2502    0.0000 </r>
       <r>   24.3632    0.0000 </r>
       <r>   24.8039    0.0000 </r>
       <r>   25.6281    0.0000 </r>
       <r>   25.8697    0.0000 </r>
       <r>   26.7682    0.0000 </r>
       <r>   27.4730    0.0000 </r>
       <r>   27.6020    0.0000 </r>
       <r>   28.1967    0.0000 </r>
       <r>   28.6698    0.0000 </r>
       <r>   28.7170    0.0000 </r>
       <r>   28.7372    0.0000 </r>
       <r>   29.4376    0.0000 </r>
       <r>   30.1281    0.0000 </r>
       <r>   30.2075    0.0000 </r>
       <r>   30.5536    0.0000 </r>
       <r>   30.7493    0.0000 </r>
       <r>   31.1902    0.0000 </r>
       <r>   31.6430    0.0000 </r>
       <r>   31.9327    0.0000 </r>
       <r>   31.9499    0.0000 </r>
       <r>   32.0705    0.0000 </r>
       <r>   33.3369    0.0000 </r>
       <r>   33.8215    0.0000 </r>
       <r>   33.9204    0.0000 </r>
       <r>   33.9639    0.0000 </r>
       <r>   34.7218    0.0000 </r>
       <r>   34.9916    0.0000 </r>
       <r>   35.1145    0.0000 </r>
       <r>   35.4087    0.0000 </r>
       <r>   35.8399    0.0000 </r>
       <r>   35.9800    0.0000 </r>
       <r>   36.2289    0.0000 </r>
       <r>   36.2845    0.0000 </r>
       <r>   36.9974    0.0000 </r>
       <r>   37.0669    0.0000 </r>
       <r>   37.5521    0.0000 </r>
       <r>   38.0494    0.0000 </r>
       <r>   38.3423    0.0000 </r>
       <r>   38.8395    0.0000 </r>
       <r>   39.5647    0.0000 </r>
       <r>   39.5754    0.0000 </r>
       <r>   39.8095    0.0000 </r>
       <r>   40.9010    0.0000 </r>
       <r>   41.1652    0.0000 </r>
       <r>   41.3765    0.0000 </r>
       <r>   41.3907    0.0000 </r>
       <r>   41.5784    0.0000 </r>
       <r>   42.5192    0.0000 </r>
       <r>   42.5884    0.0000 </r>
       <r>   43.1634    0.0000 </r>
       <r>   43.2992    0.0000 </r>
       <r>   43.4873    0.0000 </r>
       <r>   43.4948    0.0000 </r>
       <r>   43.8245    0.0000 </r>
       <r>   43.8846    0.0000 </r>
       <r>   44.0650    0.0000 </r>
       <r>   44.3000    0.0000 </r>
       <r>   44.9274    0.0000 </r>
       <r>   45.4123    0.0000 </r>
       <r>   45.4917    0.0000 </r>
       <r>   45.6958    0.0000 </r>
       <r>   45.7705    0.0000 </r>
       <r>   45.9057    0.0000 </r>
       <r>   46.1044    0.0000 </r>
       <r>   46.7032    0.0000 </r>
       <r>   46.8435    0.0000 </r>
       <r>   47.6533    0.0000 </r>
       <r>   48.0509    0.0000 </r>
      </set>
      <set comment="kpoint 6">
       <r>  -55.4817    1.0000 </r>
       <r>  -55.4815    1.0000 </r>
       <r>  -29.6168    1.0000 </r>
       <r>  -29.6165    1.0000 </r>
       <r>  -29.4049    1.0000 </r>
       <r>  -29.4048    1.0000 </r>
       <r>  -29.4047    1.0000 </r>
       <r>  -29.4046    1.0000 </r>
       <r>   -8.7081    1.0000 </r>
       <r>   -8.6576    1.0000 </r>
       <r>   -7.4330    1.0000 </r>
       <r>   -7.3448    1.0000 </r>
       <r>   -0.3610    1.0000 </r>
       <r>   -0.0554    1.0000 </r>
       <r>    2.8126    1.0000 </r>
       <r>    2.8127    1.0000 </r>
       <r>    2.8143    1.0000 </r>
       <r>    2.8144    1.0000 </r>
       <r>    3.1953    1.0000 </r>
       <r>    3.9140    1.0000 </r>
       <r>    3.9140    1.0000 </r>
       <r>    3.9205    1.0000 </r>
       <r>    3.9205    1.0000 </r>
       <r>    4.0410    1.0000 </r>
       <r>    5.2081    1.0000 </r>
       <r>    5.7034    1.0000 </r>
       <r>    8.1647    0.0000 </r>
       <r>    8.1649    0.0000 </r>
       <r>    8.1698    0.0000 </r>
       <r>    8.1700    0.0000 </r>
       <r>    8.3958    0.0000 </r>
       <r>    8.3959    0.0000 </r>
       <r>    8.4242    0.0000 </r>
       <r>    8.4243    0.0000 </r>
       <r>   11.4619    0.0000 </r>
       <r>   11.6540    0.0000 </r>
       <r>   13.1167    0.0000 </r>
       <r>   13.6006    0.0000 </r>
       <r>   14.3700    0.0000 </r>
       <r>   14.4969    0.0000 </r>
       <r>   16.1167    0.0000 </r>
       <r>   16.1172    0.0000 </r>
       <r>   16.2122    0.0000 </r>
       <r>   16.2128    0.0000 </r>
       <r>   17.5406    0.0000 </r>
       <r>   18.0569    0.0000 </r>
       <r>   18.0573    0.0000 </r>
       <r>   18.2643    0.0000 </r>
       <r>   18.2648    0.0000 </r>
       <r>   18.3528    0.0000 </r>
       <r>   19.7769    0.0000 </r>
       <r>   21.2116    0.0000 </r>
       <r>   21.2524    0.0000 </r>
       <r>   21.2527    0.0000 </r>
       <r>   21.4290    0.0000 </r>
       <r>   21.4292    0.0000 </r>
       <r>   21.5034    0.0000 </r>
       <r>   21.5039    0.0000 </r>
       <r>   21.6689    0.0000 </r>
       <r>   21.7371    0.0000 </r>
       <r>   21.9063    0.0000 </r>
       <r>   21.9065    0.0000 </r>
       <r>   23.5863    0.0000 </r>
       <r>   24.5632    0.0000 </r>
       <r>   25.0577    0.0000 </r>
       <r>   25.3049    0.0000 </r>
       <r>   26.2808    0.0000 </r>
       <r>   27.8634    0.0000 </r>
       <r>   27.8634    0.0000 </r>
       <r>   28.7343    0.0000 </r>
       <r>   28.9640    0.0000 </r>
       <r>   28.9641    0.0000 </r>
       <r>   30.1011    0.0000 </r>
       <r>   30.1011    0.0000 </r>
       <r>   30.4734    0.0000 </r>
       <r>   30.4736    0.0000 </r>
       <r>   31.0072    0.0000 </r>
       <r>   31.1581    0.0000 </r>
       <r>   32.1096    0.0000 </r>
       <r>   32.1097    0.0000 </r>
       <r>   32.1484    0.0000 </r>
       <r>   32.4751    0.0000 </r>
       <r>   33.0571    0.0000 </r>
       <r>   33.0575    0.0000 </r>
       <r>   33.3955    0.0000 </r>
       <r>   33.6648    0.0000 </r>
       <r>   34.9173    0.0000 </r>
       <r>   34.9174    0.0000 </r>
       <r>   34.9929    0.0000 </r>
       <r>   34.9930    0.0000 </r>
       <r>   36.6295    0.0000 </r>
       <r>   36.9349    0.0000 </r>
       <r>   36.9353    0.0000 </r>
       <r>   37.7033    0.0000 </r>
       <r>   37.7036    0.0000 </r>
       <r>   37.7220    0.0000 </r>
       <r>   38.3958    0.0000 </r>
       <r>   38.3959    0.0000 </r>
       <r>   38.5929    0.0000 </r>
       <r>   38.9231    0.0000 </r>
       <r>   38.9242    0.0000 </r>
       <r>   39.9047    0.0000 </r>
       <r>   40.5750    0.0000 </r>
       <r>   40.5801    0.0000 </r>
       <r>   40.5817    0.0000 </r>
       <r>   40.9140    0.0000 </r>
       <r>   41.1928    0.0000 </r>
       <r>   41.2033    0.0000 </r>
       <r>   41.9663    0.0000 </r>
       <r>   41.9695    0.0000 </r>
       <r>   43.0103    0.0000 </r>
       <r>   43.0127    0.0000 </r>
       <r>   43.4546    0.0000 </r>
       <r>   43.4752    0.0000 </r>
       <r>   43.4771    0.0000 </r>
       <r>   43.7885    0.0000 </r>
       <r>   45.1918    0.0000 </r>
       <r>   45.8408    0.0000 </r>
       <r>   46.7145    0.0000 </r>
       <r>   46.7149    0.0000 </r>
       <r>   46.7353    0.0000 </r>
       <r>   46.7375    0.0000 </r>
       <r>   47.2683    0.0000 </r>
       <r>   47.2700    0.0000 </r>
       <r>   47.8275    0.0000 </r>
       <r>   48.8221    0.0000 </r>
       <r>   48.8240    0.0000 </r>
       <r>   50.1549    0.0000 </r>
      </set>
      <set comment="kpoint 7">
       <r>  -55.4683    1.0000 </r>
       <r>  -55.4682    1.0000 </r>
       <r>  -29.5907    1.0000 </r>
       <r>  -29.5904    1.0000 </r>
       <r>  -29.5351    1.0000 </r>
       <r>  -29.5350    1.0000 </r>
       <r>  -29.4345    1.0000 </r>
       <r>  -29.4344    1.0000 </r>
       <r>   -8.1531    1.0000 </r>
       <r>   -8.1054    1.0000 </r>
       <r>   -7.1956    1.0000 </r>
       <r>   -7.1234    1.0000 </r>
       <r>    0.1869    1.0000 </r>
       <r>    0.4611    1.0000 </r>
       <r>    1.8264    1.0000 </r>
       <r>    1.8547    1.0000 </r>
       <r>    2.1025    1.0000 </r>
       <r>    2.3485    1.0000 </r>
       <r>    3.1887    1.0000 </r>
       <r>    3.1986    1.0000 </r>
       <r>    3.3755    1.0000 </r>
       <r>    3.3829    1.0000 </r>
       <r>    4.0786    1.0000 </r>
       <r>    4.4281    1.0000 </r>
       <r>    4.8962    1.0000 </r>
       <r>    5.0222    1.0000 </r>
       <r>    7.4431    0.0000 </r>
       <r>    7.7921    0.0000 </r>
       <r>    7.8906    0.0000 </r>
       <r>    7.9319    0.0000 </r>
       <r>    8.0380    0.0000 </r>
       <r>    8.2149    0.0000 </r>
       <r>    8.9148    0.0000 </r>
       <r>    8.9507    0.0000 </r>
       <r>   12.8869    0.0000 </r>
       <r>   13.4577    0.0000 </r>
       <r>   13.9670    0.0000 </r>
       <r>   14.2442    0.0000 </r>
       <r>   14.9718    0.0000 </r>
       <r>   15.0934    0.0000 </r>
       <r>   15.1844    0.0000 </r>
       <r>   15.3533    0.0000 </r>
       <r>   16.8614    0.0000 </r>
       <r>   17.1062    0.0000 </r>
       <r>   17.4023    0.0000 </r>
       <r>   17.7417    0.0000 </r>
       <r>   17.7743    0.0000 </r>
       <r>   17.8118    0.0000 </r>
       <r>   18.3729    0.0000 </r>
       <r>   18.7311    0.0000 </r>
       <r>   18.9182    0.0000 </r>
       <r>   19.1500    0.0000 </r>
       <r>   19.5856    0.0000 </r>
       <r>   19.7448    0.0000 </r>
       <r>   20.3955    0.0000 </r>
       <r>   20.7678    0.0000 </r>
       <r>   22.1397    0.0000 </r>
       <r>   22.3300    0.0000 </r>
       <r>   22.3943    0.0000 </r>
       <r>   22.8166    0.0000 </r>
       <r>   24.9693    0.0000 </r>
       <r>   25.0193    0.0000 </r>
       <r>   25.3160    0.0000 </r>
       <r>   25.5888    0.0000 </r>
       <r>   26.2658    0.0000 </r>
       <r>   26.4757    0.0000 </r>
       <r>   26.6667    0.0000 </r>
       <r>   27.6666    0.0000 </r>
       <r>   27.7365    0.0000 </r>
       <r>   27.9374    0.0000 </r>
       <r>   28.5432    0.0000 </r>
       <r>   28.5470    0.0000 </r>
       <r>   28.7681    0.0000 </r>
       <r>   29.4304    0.0000 </r>
       <r>   29.6579    0.0000 </r>
       <r>   29.8757    0.0000 </r>
       <r>   30.4264    0.0000 </r>
       <r>   31.2976    0.0000 </r>
       <r>   31.9871    0.0000 </r>
       <r>   32.5295    0.0000 </r>
       <r>   32.9083    0.0000 </r>
       <r>   32.9135    0.0000 </r>
       <r>   33.3553    0.0000 </r>
       <r>   33.6372    0.0000 </r>
       <r>   33.9803    0.0000 </r>
       <r>   34.8872    0.0000 </r>
       <r>   35.2727    0.0000 </r>
       <r>   35.6215    0.0000 </r>
       <r>   35.7152    0.0000 </r>
       <r>   36.0584    0.0000 </r>
       <r>   36.2740    0.0000 </r>
       <r>   36.4707    0.0000 </r>
       <r>   36.6320    0.0000 </r>
       <r>   36.8345    0.0000 </r>
       <r>   37.5308    0.0000 </r>
       <r>   37.7568    0.0000 </r>
       <r>   37.8730    0.0000 </r>
       <r>   38.3912    0.0000 </r>
       <r>   38.5802    0.0000 </r>
       <r>   38.6947    0.0000 </r>
       <r>   39.0347    0.0000 </r>
       <r>   39.4191    0.0000 </r>
       <r>   39.4543    0.0000 </r>
       <r>   39.4652    0.0000 </r>
       <r>   39.6936    0.0000 </r>
       <r>   39.8647    0.0000 </r>
       <r>   41.5162    0.0000 </r>
       <r>   41.9102    0.0000 </r>
       <r>   42.4314    0.0000 </r>
       <r>   42.8888    0.0000 </r>
       <r>   43.2177    0.0000 </r>
       <r>   43.4841    0.0000 </r>
       <r>   43.7521    0.0000 </r>
       <r>   44.2826    0.0000 </r>
       <r>   44.4420    0.0000 </r>
       <r>   44.5237    0.0000 </r>
       <r>   44.8466    0.0000 </r>
       <r>   45.4414    0.0000 </r>
       <r>   45.5629    0.0000 </r>
       <r>   46.2866    0.0000 </r>
       <r>   46.6718    0.0000 </r>
       <r>   46.8431    0.0000 </r>
       <r>   47.1030    0.0000 </r>
       <r>   47.8409    0.0000 </r>
       <r>   47.9648    0.0000 </r>
       <r>   48.5560    0.0000 </r>
       <r>   48.7956    0.0000 </r>
       <r>   49.7847    0.0000 </r>
      </set>
      <set comment="kpoint 8">
       <r>  -55.4472    1.0000 </r>
       <r>  -55.4470    1.0000 </r>
       <r>  -29.7425    1.0000 </r>
       <r>  -29.7423    1.0000 </r>
       <r>  -29.5485    1.0000 </r>
       <r>  -29.5480    1.0000 </r>
       <r>  -29.4829    1.0000 </r>
       <r>  -29.4826    1.0000 </r>
       <r>   -7.0526    1.0000 </r>
       <r>   -7.0233    1.0000 </r>
       <r>   -6.7376    1.0000 </r>
       <r>   -6.7053    1.0000 </r>
       <r>   -0.1689    1.0000 </r>
       <r>   -0.0974    1.0000 </r>
       <r>    0.8089    1.0000 </r>
       <r>    0.8849    1.0000 </r>
       <r>    1.3621    1.0000 </r>
       <r>    1.5338    1.0000 </r>
       <r>    2.3673    1.0000 </r>
       <r>    2.3795    1.0000 </r>
       <r>    3.5356    1.0000 </r>
       <r>    3.6774    1.0000 </r>
       <r>    4.2887    1.0000 </r>
       <r>    4.3164    1.0000 </r>
       <r>    4.5093    1.0000 </r>
       <r>    4.5948    1.0000 </r>
       <r>    7.6086    0.0000 </r>
       <r>    7.6272    0.0000 </r>
       <r>    7.8548    0.0000 </r>
       <r>    8.0599    0.0000 </r>
       <r>    8.9303    0.0000 </r>
       <r>    9.2973    0.0000 </r>
       <r>    9.5833    0.0000 </r>
       <r>    9.6690    0.0000 </r>
       <r>   12.0907    0.0000 </r>
       <r>   12.3530    0.0000 </r>
       <r>   13.0001    0.0000 </r>
       <r>   13.2521    0.0000 </r>
       <r>   13.5178    0.0000 </r>
       <r>   14.2505    0.0000 </r>
       <r>   14.6944    0.0000 </r>
       <r>   15.2644    0.0000 </r>
       <r>   16.2487    0.0000 </r>
       <r>   16.8117    0.0000 </r>
       <r>   16.8941    0.0000 </r>
       <r>   17.2314    0.0000 </r>
       <r>   18.0406    0.0000 </r>
       <r>   18.2593    0.0000 </r>
       <r>   19.8108    0.0000 </r>
       <r>   19.9387    0.0000 </r>
       <r>   20.7397    0.0000 </r>
       <r>   20.8017    0.0000 </r>
       <r>   20.9464    0.0000 </r>
       <r>   21.6242    0.0000 </r>
       <r>   21.8276    0.0000 </r>
       <r>   22.0591    0.0000 </r>
       <r>   22.8117    0.0000 </r>
       <r>   23.0195    0.0000 </r>
       <r>   23.0359    0.0000 </r>
       <r>   23.3392    0.0000 </r>
       <r>   24.3882    0.0000 </r>
       <r>   24.5242    0.0000 </r>
       <r>   24.8422    0.0000 </r>
       <r>   25.3295    0.0000 </r>
       <r>   26.0117    0.0000 </r>
       <r>   27.0094    0.0000 </r>
       <r>   27.2946    0.0000 </r>
       <r>   27.6330    0.0000 </r>
       <r>   27.8857    0.0000 </r>
       <r>   28.5432    0.0000 </r>
       <r>   29.3828    0.0000 </r>
       <r>   29.5232    0.0000 </r>
       <r>   30.3187    0.0000 </r>
       <r>   30.3463    0.0000 </r>
       <r>   30.9513    0.0000 </r>
       <r>   31.0993    0.0000 </r>
       <r>   31.1770    0.0000 </r>
       <r>   31.3713    0.0000 </r>
       <r>   31.5122    0.0000 </r>
       <r>   31.7927    0.0000 </r>
       <r>   32.3222    0.0000 </r>
       <r>   32.5473    0.0000 </r>
       <r>   32.6161    0.0000 </r>
       <r>   33.2036    0.0000 </r>
       <r>   33.4381    0.0000 </r>
       <r>   33.5881    0.0000 </r>
       <r>   34.6765    0.0000 </r>
       <r>   34.9846    0.0000 </r>
       <r>   35.7316    0.0000 </r>
       <r>   36.0053    0.0000 </r>
       <r>   36.3272    0.0000 </r>
       <r>   36.3361    0.0000 </r>
       <r>   37.0552    0.0000 </r>
       <r>   37.1542    0.0000 </r>
       <r>   37.5025    0.0000 </r>
       <r>   37.9228    0.0000 </r>
       <r>   38.1965    0.0000 </r>
       <r>   38.4302    0.0000 </r>
       <r>   38.9141    0.0000 </r>
       <r>   39.3849    0.0000 </r>
       <r>   39.4701    0.0000 </r>
       <r>   39.8547    0.0000 </r>
       <r>   40.2421    0.0000 </r>
       <r>   40.4949    0.0000 </r>
       <r>   40.5994    0.0000 </r>
       <r>   40.8409    0.0000 </r>
       <r>   41.6474    0.0000 </r>
       <r>   42.2172    0.0000 </r>
       <r>   42.3907    0.0000 </r>
       <r>   42.9971    0.0000 </r>
       <r>   43.0934    0.0000 </r>
       <r>   43.2704    0.0000 </r>
       <r>   43.8109    0.0000 </r>
       <r>   44.0929    0.0000 </r>
       <r>   44.1881    0.0000 </r>
       <r>   44.6197    0.0000 </r>
       <r>   44.6371    0.0000 </r>
       <r>   45.1141    0.0000 </r>
       <r>   45.4572    0.0000 </r>
       <r>   45.7368    0.0000 </r>
       <r>   46.4973    0.0000 </r>
       <r>   46.5671    0.0000 </r>
       <r>   46.7728    0.0000 </r>
       <r>   47.0600    0.0000 </r>
       <r>   47.2749    0.0000 </r>
       <r>   47.8199    0.0000 </r>
       <r>   47.9810    0.0000 </r>
       <r>   48.0893    0.0000 </r>
      </set>
      <set comment="kpoint 9">
       <r>  -55.4513    1.0000 </r>
       <r>  -55.4511    1.0000 </r>
       <r>  -29.6706    1.0000 </r>
       <r>  -29.6703    1.0000 </r>
       <r>  -29.5565    1.0000 </r>
       <r>  -29.5561    1.0000 </r>
       <r>  -29.5078    1.0000 </r>
       <r>  -29.5073    1.0000 </r>
       <r>   -7.3006    1.0000 </r>
       <r>   -7.2638    1.0000 </r>
       <r>   -6.8276    1.0000 </r>
       <r>   -6.7829    1.0000 </r>
       <r>    0.3210    1.0000 </r>
       <r>    0.4203    1.0000 </r>
       <r>    1.1851    1.0000 </r>
       <r>    1.2222    1.0000 </r>
       <r>    1.6371    1.0000 </r>
       <r>    1.7363    1.0000 </r>
       <r>    2.0039    1.0000 </r>
       <r>    2.2001    1.0000 </r>
       <r>    3.1708    1.0000 </r>
       <r>    3.1771    1.0000 </r>
       <r>    4.1409    1.0000 </r>
       <r>    4.1940    1.0000 </r>
       <r>    4.6315    1.0000 </r>
       <r>    4.6337    1.0000 </r>
       <r>    7.2192    0.0000 </r>
       <r>    7.5869    0.0000 </r>
       <r>    7.9261    0.0000 </r>
       <r>    7.9916    0.0000 </r>
       <r>    8.1807    0.0000 </r>
       <r>    8.4343    0.0000 </r>
       <r>    9.6807    0.0000 </r>
       <r>    9.9182    0.0000 </r>
       <r>   13.5256    0.0000 </r>
       <r>   13.6789    0.0000 </r>
       <r>   13.8513    0.0000 </r>
       <r>   13.9997    0.0000 </r>
       <r>   14.7385    0.0000 </r>
       <r>   15.1458    0.0000 </r>
       <r>   15.4865    0.0000 </r>
       <r>   15.7123    0.0000 </r>
       <r>   16.3311    0.0000 </r>
       <r>   16.3811    0.0000 </r>
       <r>   16.9310    0.0000 </r>
       <r>   17.1085    0.0000 </r>
       <r>   17.5512    0.0000 </r>
       <r>   17.5801    0.0000 </r>
       <r>   17.9593    0.0000 </r>
       <r>   18.1467    0.0000 </r>
       <r>   18.5448    0.0000 </r>
       <r>   19.8038    0.0000 </r>
       <r>   20.0742    0.0000 </r>
       <r>   20.5084    0.0000 </r>
       <r>   21.5089    0.0000 </r>
       <r>   21.6047    0.0000 </r>
       <r>   22.4221    0.0000 </r>
       <r>   23.6346    0.0000 </r>
       <r>   23.7155    0.0000 </r>
       <r>   24.5468    0.0000 </r>
       <r>   24.9356    0.0000 </r>
       <r>   25.0697    0.0000 </r>
       <r>   25.4454    0.0000 </r>
       <r>   25.6784    0.0000 </r>
       <r>   26.5028    0.0000 </r>
       <r>   26.5268    0.0000 </r>
       <r>   27.7307    0.0000 </r>
       <r>   28.1313    0.0000 </r>
       <r>   28.4495    0.0000 </r>
       <r>   29.0198    0.0000 </r>
       <r>   29.0719    0.0000 </r>
       <r>   29.3532    0.0000 </r>
       <r>   29.6427    0.0000 </r>
       <r>   29.7378    0.0000 </r>
       <r>   30.3095    0.0000 </r>
       <r>   30.3938    0.0000 </r>
       <r>   30.6454    0.0000 </r>
       <r>   30.8114    0.0000 </r>
       <r>   31.1680    0.0000 </r>
       <r>   31.8987    0.0000 </r>
       <r>   32.4573    0.0000 </r>
       <r>   32.5290    0.0000 </r>
       <r>   33.4985    0.0000 </r>
       <r>   33.7486    0.0000 </r>
       <r>   33.9094    0.0000 </r>
       <r>   34.2088    0.0000 </r>
       <r>   35.0449    0.0000 </r>
       <r>   35.0636    0.0000 </r>
       <r>   35.2606    0.0000 </r>
       <r>   35.8853    0.0000 </r>
       <r>   36.1145    0.0000 </r>
       <r>   36.2695    0.0000 </r>
       <r>   36.3331    0.0000 </r>
       <r>   36.8937    0.0000 </r>
       <r>   36.9970    0.0000 </r>
       <r>   37.4618    0.0000 </r>
       <r>   37.7779    0.0000 </r>
       <r>   37.9236    0.0000 </r>
       <r>   39.1035    0.0000 </r>
       <r>   39.6222    0.0000 </r>
       <r>   39.7897    0.0000 </r>
       <r>   39.9879    0.0000 </r>
       <r>   40.2649    0.0000 </r>
       <r>   40.5475    0.0000 </r>
       <r>   40.7131    0.0000 </r>
       <r>   41.0031    0.0000 </r>
       <r>   41.8609    0.0000 </r>
       <r>   41.8654    0.0000 </r>
       <r>   42.5682    0.0000 </r>
       <r>   42.6518    0.0000 </r>
       <r>   43.0814    0.0000 </r>
       <r>   43.3982    0.0000 </r>
       <r>   43.5180    0.0000 </r>
       <r>   44.1366    0.0000 </r>
       <r>   44.3997    0.0000 </r>
       <r>   44.6317    0.0000 </r>
       <r>   44.7466    0.0000 </r>
       <r>   45.5261    0.0000 </r>
       <r>   45.9340    0.0000 </r>
       <r>   46.1539    0.0000 </r>
       <r>   46.5425    0.0000 </r>
       <r>   46.9664    0.0000 </r>
       <r>   46.9958    0.0000 </r>
       <r>   47.3430    0.0000 </r>
       <r>   47.6543    0.0000 </r>
       <r>   47.8189    0.0000 </r>
       <r>   48.1801    0.0000 </r>
       <r>   48.2738    0.0000 </r>
      </set>
      <set comment="kpoint 10">
       <r>  -55.4407    1.0000 </r>
       <r>  -55.4404    1.0000 </r>
       <r>  -29.7344    1.0000 </r>
       <r>  -29.7339    1.0000 </r>
       <r>  -29.5708    1.0000 </r>
       <r>  -29.5706    1.0000 </r>
       <r>  -29.5352    1.0000 </r>
       <r>  -29.5348    1.0000 </r>
       <r>   -6.6565    1.0000 </r>
       <r>   -6.6437    1.0000 </r>
       <r>   -6.5424    1.0000 </r>
       <r>   -6.5303    1.0000 </r>
       <r>    0.1667    1.0000 </r>
       <r>    0.2146    1.0000 </r>
       <r>    0.2336    1.0000 </r>
       <r>    0.2465    1.0000 </r>
       <r>    1.4330    1.0000 </r>
       <r>    1.5556    1.0000 </r>
       <r>    2.2601    1.0000 </r>
       <r>    2.3761    1.0000 </r>
       <r>    2.6621    1.0000 </r>
       <r>    2.7201    1.0000 </r>
       <r>    3.4167    1.0000 </r>
       <r>    3.5233    1.0000 </r>
       <r>    5.1274    1.0000 </r>
       <r>    5.1733    1.0000 </r>
       <r>    7.4265    0.0000 </r>
       <r>    7.4583    0.0000 </r>
       <r>    8.5453    0.0000 </r>
       <r>    8.5528    0.0000 </r>
       <r>    8.6145    0.0000 </r>
       <r>    8.8537    0.0000 </r>
       <r>    9.7954    0.0000 </r>
       <r>   10.0791    0.0000 </r>
       <r>   12.0357    0.0000 </r>
       <r>   12.1514    0.0000 </r>
       <r>   13.8042    0.0000 </r>
       <r>   14.3067    0.0000 </r>
       <r>   14.4704    0.0000 </r>
       <r>   14.9743    0.0000 </r>
       <r>   15.2293    0.0000 </r>
       <r>   15.4290    0.0000 </r>
       <r>   15.7433    0.0000 </r>
       <r>   16.3259    0.0000 </r>
       <r>   16.4578    0.0000 </r>
       <r>   17.1179    0.0000 </r>
       <r>   17.7528    0.0000 </r>
       <r>   18.1233    0.0000 </r>
       <r>   19.2980    0.0000 </r>
       <r>   19.3021    0.0000 </r>
       <r>   19.6749    0.0000 </r>
       <r>   19.8046    0.0000 </r>
       <r>   20.5262    0.0000 </r>
       <r>   20.6830    0.0000 </r>
       <r>   21.6704    0.0000 </r>
       <r>   21.9444    0.0000 </r>
       <r>   22.7283    0.0000 </r>
       <r>   23.7829    0.0000 </r>
       <r>   23.8608    0.0000 </r>
       <r>   24.3661    0.0000 </r>
       <r>   24.4425    0.0000 </r>
       <r>   24.7821    0.0000 </r>
       <r>   25.6460    0.0000 </r>
       <r>   25.6997    0.0000 </r>
       <r>   26.9930    0.0000 </r>
       <r>   27.5696    0.0000 </r>
       <r>   27.6064    0.0000 </r>
       <r>   28.2193    0.0000 </r>
       <r>   28.6628    0.0000 </r>
       <r>   28.7326    0.0000 </r>
       <r>   28.7687    0.0000 </r>
       <r>   29.3403    0.0000 </r>
       <r>   30.1237    0.0000 </r>
       <r>   30.1865    0.0000 </r>
       <r>   30.6838    0.0000 </r>
       <r>   30.8559    0.0000 </r>
       <r>   31.2625    0.0000 </r>
       <r>   31.6277    0.0000 </r>
       <r>   31.8477    0.0000 </r>
       <r>   31.9693    0.0000 </r>
       <r>   31.9769    0.0000 </r>
       <r>   33.0541    0.0000 </r>
       <r>   33.7171    0.0000 </r>
       <r>   33.8565    0.0000 </r>
       <r>   34.1065    0.0000 </r>
       <r>   34.7583    0.0000 </r>
       <r>   34.8642    0.0000 </r>
       <r>   35.2486    0.0000 </r>
       <r>   35.4536    0.0000 </r>
       <r>   35.4579    0.0000 </r>
       <r>   36.1050    0.0000 </r>
       <r>   36.1422    0.0000 </r>
       <r>   36.5336    0.0000 </r>
       <r>   36.9432    0.0000 </r>
       <r>   37.0583    0.0000 </r>
       <r>   37.8910    0.0000 </r>
       <r>   38.3291    0.0000 </r>
       <r>   38.3738    0.0000 </r>
       <r>   38.5821    0.0000 </r>
       <r>   39.5805    0.0000 </r>
       <r>   39.7467    0.0000 </r>
       <r>   40.0224    0.0000 </r>
       <r>   40.7623    0.0000 </r>
       <r>   40.9339    0.0000 </r>
       <r>   41.3518    0.0000 </r>
       <r>   41.4039    0.0000 </r>
       <r>   41.6151    0.0000 </r>
       <r>   42.3515    0.0000 </r>
       <r>   42.5721    0.0000 </r>
       <r>   42.8099    0.0000 </r>
       <r>   43.1559    0.0000 </r>
       <r>   43.3988    0.0000 </r>
       <r>   43.5149    0.0000 </r>
       <r>   43.7399    0.0000 </r>
       <r>   43.9409    0.0000 </r>
       <r>   44.2425    0.0000 </r>
       <r>   44.5237    0.0000 </r>
       <r>   44.8154    0.0000 </r>
       <r>   45.1652    0.0000 </r>
       <r>   45.2541    0.0000 </r>
       <r>   45.6136    0.0000 </r>
       <r>   45.7375    0.0000 </r>
       <r>   46.0823    0.0000 </r>
       <r>   46.6344    0.0000 </r>
       <r>   46.8391    0.0000 </r>
       <r>   47.2604    0.0000 </r>
       <r>   47.4152    0.0000 </r>
       <r>   47.9094    0.0000 </r>
      </set>
      <set comment="kpoint 11">
       <r>  -55.4816    1.0000 </r>
       <r>  -55.4815    1.0000 </r>
       <r>  -29.6163    1.0000 </r>
       <r>  -29.6160    1.0000 </r>
       <r>  -29.4048    1.0000 </r>
       <r>  -29.4048    1.0000 </r>
       <r>  -29.4045    1.0000 </r>
       <r>  -29.4045    1.0000 </r>
       <r>   -8.6931    1.0000 </r>
       <r>   -8.6738    1.0000 </r>
       <r>   -7.4050    1.0000 </r>
       <r>   -7.3715    1.0000 </r>
       <r>   -0.2736    1.0000 </r>
       <r>   -0.1574    1.0000 </r>
       <r>    2.8132    1.0000 </r>
       <r>    2.8133    1.0000 </r>
       <r>    2.8137    1.0000 </r>
       <r>    2.8139    1.0000 </r>
       <r>    3.4240    1.0000 </r>
       <r>    3.7344    1.0000 </r>
       <r>    3.9162    1.0000 </r>
       <r>    3.9162    1.0000 </r>
       <r>    3.9186    1.0000 </r>
       <r>    3.9186    1.0000 </r>
       <r>    5.4145    1.0000 </r>
       <r>    5.5922    1.0000 </r>
       <r>    8.1663    0.0000 </r>
       <r>    8.1665    0.0000 </r>
       <r>    8.1681    0.0000 </r>
       <r>    8.1683    0.0000 </r>
       <r>    8.4050    0.0000 </r>
       <r>    8.4050    0.0000 </r>
       <r>    8.4156    0.0000 </r>
       <r>    8.4157    0.0000 </r>
       <r>   11.5272    0.0000 </r>
       <r>   11.6006    0.0000 </r>
       <r>   13.2380    0.0000 </r>
       <r>   13.4203    0.0000 </r>
       <r>   14.4074    0.0000 </r>
       <r>   14.4559    0.0000 </r>
       <r>   16.1457    0.0000 </r>
       <r>   16.1462    0.0000 </r>
       <r>   16.1821    0.0000 </r>
       <r>   16.1826    0.0000 </r>
       <r>   17.8338    0.0000 </r>
       <r>   18.1175    0.0000 </r>
       <r>   18.1180    0.0000 </r>
       <r>   18.1386    0.0000 </r>
       <r>   18.1983    0.0000 </r>
       <r>   18.1987    0.0000 </r>
       <r>   20.1428    0.0000 </r>
       <r>   20.7289    0.0000 </r>
       <r>   21.3116    0.0000 </r>
       <r>   21.3120    0.0000 </r>
       <r>   21.4106    0.0000 </r>
       <r>   21.4110    0.0000 </r>
       <r>   21.5296    0.0000 </r>
       <r>   21.5944    0.0000 </r>
       <r>   21.5946    0.0000 </r>
       <r>   21.6072    0.0000 </r>
       <r>   21.7756    0.0000 </r>
       <r>   21.7758    0.0000 </r>
       <r>   24.1452    0.0000 </r>
       <r>   24.3771    0.0000 </r>
       <r>   25.1716    0.0000 </r>
       <r>   25.1808    0.0000 </r>
       <r>   26.9788    0.0000 </r>
       <r>   27.8503    0.0000 </r>
       <r>   28.1710    0.0000 </r>
       <r>   28.1710    0.0000 </r>
       <r>   28.5899    0.0000 </r>
       <r>   28.5900    0.0000 </r>
       <r>   30.1626    0.0000 </r>
       <r>   30.1627    0.0000 </r>
       <r>   30.2766    0.0000 </r>
       <r>   30.2767    0.0000 </r>
       <r>   30.7520    0.0000 </r>
       <r>   30.8226    0.0000 </r>
       <r>   32.4617    0.0000 </r>
       <r>   32.6819    0.0000 </r>
       <r>   32.7007    0.0000 </r>
       <r>   32.7010    0.0000 </r>
       <r>   33.0566    0.0000 </r>
       <r>   33.0570    0.0000 </r>
       <r>   34.0312    0.0000 </r>
       <r>   34.2444    0.0000 </r>
       <r>   34.5666    0.0000 </r>
       <r>   34.5667    0.0000 </r>
       <r>   34.5989    0.0000 </r>
       <r>   34.5989    0.0000 </r>
       <r>   35.9650    0.0000 </r>
       <r>   36.5883    0.0000 </r>
       <r>   37.5134    0.0000 </r>
       <r>   37.5139    0.0000 </r>
       <r>   37.8026    0.0000 </r>
       <r>   37.8030    0.0000 </r>
       <r>   38.3888    0.0000 </r>
       <r>   38.3890    0.0000 </r>
       <r>   38.5651    0.0000 </r>
       <r>   38.5658    0.0000 </r>
       <r>   39.2718    0.0000 </r>
       <r>   39.9551    0.0000 </r>
       <r>   40.7915    0.0000 </r>
       <r>   41.0228    0.0000 </r>
       <r>   41.0249    0.0000 </r>
       <r>   41.1930    0.0000 </r>
       <r>   41.2042    0.0000 </r>
       <r>   41.4210    0.0000 </r>
       <r>   41.5517    0.0000 </r>
       <r>   41.5544    0.0000 </r>
       <r>   42.9249    0.0000 </r>
       <r>   43.1232    0.0000 </r>
       <r>   43.1255    0.0000 </r>
       <r>   43.2855    0.0000 </r>
       <r>   43.2889    0.0000 </r>
       <r>   43.2908    0.0000 </r>
       <r>   45.5494    0.0000 </r>
       <r>   45.7597    0.0000 </r>
       <r>   46.7064    0.0000 </r>
       <r>   46.7074    0.0000 </r>
       <r>   46.7134    0.0000 </r>
       <r>   46.7150    0.0000 </r>
       <r>   47.7884    0.0000 </r>
       <r>   47.7902    0.0000 </r>
       <r>   48.3720    0.0000 </r>
       <r>   48.3738    0.0000 </r>
       <r>   48.8148    0.0000 </r>
       <r>   50.2232    0.0000 </r>
      </set>
      <set comment="kpoint 12">
       <r>  -55.4683    1.0000 </r>
       <r>  -55.4682    1.0000 </r>
       <r>  -29.5906    1.0000 </r>
       <r>  -29.5904    1.0000 </r>
       <r>  -29.5351    1.0000 </r>
       <r>  -29.5350    1.0000 </r>
       <r>  -29.4345    1.0000 </r>
       <r>  -29.4344    1.0000 </r>
       <r>   -8.1390    1.0000 </r>
       <r>   -8.1208    1.0000 </r>
       <r>   -7.1726    1.0000 </r>
       <r>   -7.1451    1.0000 </r>
       <r>    0.2635    1.0000 </r>
       <r>    0.3673    1.0000 </r>
       <r>    1.8314    1.0000 </r>
       <r>    1.8410    1.0000 </r>
       <r>    2.1961    1.0000 </r>
       <r>    2.2876    1.0000 </r>
       <r>    3.1916    1.0000 </r>
       <r>    3.1955    1.0000 </r>
       <r>    3.3779    1.0000 </r>
       <r>    3.3806    1.0000 </r>
       <r>    4.1641    1.0000 </r>
       <r>    4.2924    1.0000 </r>
       <r>    4.9558    1.0000 </r>
       <r>    4.9990    1.0000 </r>
       <r>    7.5384    0.0000 </r>
       <r>    7.6643    0.0000 </r>
       <r>    7.9030    0.0000 </r>
       <r>    7.9187    0.0000 </r>
       <r>    8.1167    0.0000 </r>
       <r>    8.1770    0.0000 </r>
       <r>    8.9263    0.0000 </r>
       <r>    8.9400    0.0000 </r>
       <r>   13.0228    0.0000 </r>
       <r>   13.2263    0.0000 </r>
       <r>   14.1008    0.0000 </r>
       <r>   14.1913    0.0000 </r>
       <r>   15.0177    0.0000 </r>
       <r>   15.0597    0.0000 </r>
       <r>   15.2355    0.0000 </r>
       <r>   15.3005    0.0000 </r>
       <r>   16.8849    0.0000 </r>
       <r>   16.9649    0.0000 </r>
       <r>   17.5751    0.0000 </r>
       <r>   17.7272    0.0000 </r>
       <r>   17.7600    0.0000 </r>
       <r>   17.7877    0.0000 </r>
       <r>   18.4632    0.0000 </r>
       <r>   18.5944    0.0000 </r>
       <r>   18.9650    0.0000 </r>
       <r>   19.0773    0.0000 </r>
       <r>   19.9209    0.0000 </r>
       <r>   19.9629    0.0000 </r>
       <r>   20.2056    0.0000 </r>
       <r>   20.3785    0.0000 </r>
       <r>   22.2320    0.0000 </r>
       <r>   22.3283    0.0000 </r>
       <r>   22.4609    0.0000 </r>
       <r>   22.6462    0.0000 </r>
       <r>   24.9542    0.0000 </r>
       <r>   24.9693    0.0000 </r>
       <r>   25.4336    0.0000 </r>
       <r>   25.5596    0.0000 </r>
       <r>   26.4461    0.0000 </r>
       <r>   26.4868    0.0000 </r>
       <r>   26.8910    0.0000 </r>
       <r>   27.5388    0.0000 </r>
       <r>   27.8633    0.0000 </r>
       <r>   28.1724    0.0000 </r>
       <r>   28.2867    0.0000 </r>
       <r>   28.5656    0.0000 </r>
       <r>   28.7118    0.0000 </r>
       <r>   29.0797    0.0000 </r>
       <r>   29.8590    0.0000 </r>
       <r>   29.9243    0.0000 </r>
       <r>   30.2628    0.0000 </r>
       <r>   30.5923    0.0000 </r>
       <r>   32.3658    0.0000 </r>
       <r>   32.5393    0.0000 </r>
       <r>   32.7648    0.0000 </r>
       <r>   32.8475    0.0000 </r>
       <r>   33.8910    0.0000 </r>
       <r>   33.9481    0.0000 </r>
       <r>   34.3773    0.0000 </r>
       <r>   35.0658    0.0000 </r>
       <r>   35.1093    0.0000 </r>
       <r>   35.4970    0.0000 </r>
       <r>   35.5320    0.0000 </r>
       <r>   35.9833    0.0000 </r>
       <r>   36.1545    0.0000 </r>
       <r>   36.4706    0.0000 </r>
       <r>   36.4798    0.0000 </r>
       <r>   36.7713    0.0000 </r>
       <r>   37.2052    0.0000 </r>
       <r>   37.6694    0.0000 </r>
       <r>   37.9141    0.0000 </r>
       <r>   38.1400    0.0000 </r>
       <r>   38.6510    0.0000 </r>
       <r>   38.9418    0.0000 </r>
       <r>   39.0336    0.0000 </r>
       <r>   39.3164    0.0000 </r>
       <r>   39.5916    0.0000 </r>
       <r>   39.7463    0.0000 </r>
       <r>   40.2456    0.0000 </r>
       <r>   40.2959    0.0000 </r>
       <r>   40.7805    0.0000 </r>
       <r>   41.0369    0.0000 </r>
       <r>   42.4374    0.0000 </r>
       <r>   42.6860    0.0000 </r>
       <r>   43.4672    0.0000 </r>
       <r>   43.5738    0.0000 </r>
       <r>   44.1467    0.0000 </r>
       <r>   44.4636    0.0000 </r>
       <r>   44.7523    0.0000 </r>
       <r>   44.9657    0.0000 </r>
       <r>   45.0664    0.0000 </r>
       <r>   45.4446    0.0000 </r>
       <r>   45.4549    0.0000 </r>
       <r>   45.6751    0.0000 </r>
       <r>   46.2450    0.0000 </r>
       <r>   46.3205    0.0000 </r>
       <r>   47.0987    0.0000 </r>
       <r>   47.5034    0.0000 </r>
       <r>   48.3800    0.0000 </r>
       <r>   48.5690    0.0000 </r>
       <r>   49.4553    0.0000 </r>
       <r>   49.9807    0.0000 </r>
      </set>
      <set comment="kpoint 13">
       <r>  -55.4471    1.0000 </r>
       <r>  -55.4470    1.0000 </r>
       <r>  -29.7423    1.0000 </r>
       <r>  -29.7421    1.0000 </r>
       <r>  -29.5484    1.0000 </r>
       <r>  -29.5480    1.0000 </r>
       <r>  -29.4826    1.0000 </r>
       <r>  -29.4824    1.0000 </r>
       <r>   -7.0441    1.0000 </r>
       <r>   -7.0330    1.0000 </r>
       <r>   -6.7269    1.0000 </r>
       <r>   -6.7146    1.0000 </r>
       <r>   -0.1474    1.0000 </r>
       <r>   -0.1202    1.0000 </r>
       <r>    0.8278    1.0000 </r>
       <r>    0.8561    1.0000 </r>
       <r>    1.4213    1.0000 </r>
       <r>    1.4861    1.0000 </r>
       <r>    2.3710    1.0000 </r>
       <r>    2.3758    1.0000 </r>
       <r>    3.5758    1.0000 </r>
       <r>    3.6296    1.0000 </r>
       <r>    4.2974    1.0000 </r>
       <r>    4.3080    1.0000 </r>
       <r>    4.5396    1.0000 </r>
       <r>    4.5719    1.0000 </r>
       <r>    7.6146    0.0000 </r>
       <r>    7.6217    0.0000 </r>
       <r>    7.9127    0.0000 </r>
       <r>    7.9897    0.0000 </r>
       <r>    9.0429    0.0000 </r>
       <r>    9.1817    0.0000 </r>
       <r>    9.6098    0.0000 </r>
       <r>    9.6426    0.0000 </r>
[...]
       <r>    40.5814     4.7543   208.0696 </r>
       <r>    40.6202     5.2073   208.2715 </r>
       <r>    40.6590     4.8907   208.4611 </r>
       <r>    40.6977     4.2022   208.6241 </r>
       <r>    40.7365     5.5902   208.8408 </r>
       <r>    40.7753     8.0074   209.1513 </r>
       <r>    40.8141     7.5101   209.4424 </r>
       <r>    40.8528     7.0370   209.7153 </r>
       <r>    40.8916     9.7354   210.0927 </r>
       <r>    40.9304    10.3458   210.4938 </r>
       <r>    40.9691     6.3750   210.7410 </r>
       <r>    41.0079     4.8606   210.9295 </r>
       <r>    41.0467     5.4395   211.1404 </r>
       <r>    41.0855     3.4612   211.2746 </r>
       <r>    41.1242     2.2692   211.3625 </r>
       <r>    41.1630     3.9181   211.5144 </r>
       <r>    41.2018     5.6739   211.7344 </r>
       <r>    41.2405     5.9776   211.9662 </r>
       <r>    41.2793     3.4576   212.1002 </r>
       <r>    41.3181     1.7037   212.1663 </r>
       <r>    41.3569     3.3862   212.2976 </r>
       <r>    41.3956     5.3866   212.5064 </r>
       <r>    41.4344     4.2817   212.6724 </r>
       <r>    41.4732     2.0043   212.7502 </r>
       <r>    41.5119     2.1987   212.8354 </r>
       <r>    41.5507     3.6037   212.9751 </r>
       <r>    41.5895     5.2225   213.1776 </r>
       <r>    41.6283     6.2219   213.4188 </r>
       <r>    41.6670     4.6314   213.5984 </r>
       <r>    41.7058     2.8605   213.7093 </r>
       <r>    41.7446     3.0180   213.8263 </r>
       <r>    41.7833     2.6477   213.9290 </r>
       <r>    41.8221     2.9666   214.0440 </r>
       <r>    41.8609     6.1919   214.2841 </r>
       <r>    41.8997     7.9294   214.5915 </r>
       <r>    41.9384     7.5559   214.8845 </r>
       <r>    41.9772     6.1618   215.1234 </r>
       <r>    42.0160     3.5975   215.2628 </r>
       <r>    42.0547     2.1312   215.3455 </r>
       <r>    42.0935     1.7960   215.4151 </r>
       <r>    42.1323     1.4024   215.4695 </r>
       <r>    42.1711     1.6550   215.5336 </r>
       <r>    42.2098     2.7509   215.6403 </r>
       <r>    42.2486     2.5095   215.7376 </r>
       <r>    42.2874     1.3248   215.7890 </r>
       <r>    42.3261     2.6403   215.8913 </r>
       <r>    42.3649     5.9283   216.1212 </r>
       <r>    42.4037     7.4573   216.4103 </r>
       <r>    42.4425     7.4750   216.7001 </r>
       <r>    42.4812     6.2993   216.9443 </r>
       <r>    42.5200     5.1476   217.1439 </r>
       <r>    42.5588     5.7372   217.3664 </r>
       <r>    42.5975     7.2519   217.6475 </r>
       <r>    42.6363     8.2187   217.9662 </r>
       <r>    42.6751     8.8822   218.3106 </r>
       <r>    42.7139     8.5064   218.6404 </r>
       <r>    42.7526     6.8792   218.9071 </r>
       <r>    42.7914     5.2782   219.1117 </r>
       <r>    42.8302     4.1459   219.2725 </r>
       <r>    42.8689     3.5679   219.4108 </r>
       <r>    42.9077     4.5637   219.5877 </r>
       <r>    42.9465     3.9941   219.7426 </r>
       <r>    42.9853     3.8870   219.8933 </r>
       <r>    43.0240     4.6743   220.0745 </r>
       <r>    43.0628     5.7659   220.2981 </r>
       <r>    43.1016     8.3055   220.6201 </r>
       <r>    43.1403     7.8659   220.9251 </r>
       <r>    43.1791     6.6521   221.1830 </r>
       <r>    43.2179     7.2341   221.4635 </r>
       <r>    43.2567     9.3218   221.8249 </r>
       <r>    43.2954     8.7074   222.1625 </r>
       <r>    43.3342     7.4524   222.4514 </r>
       <r>    43.3730     9.4900   222.8194 </r>
       <r>    43.4117    11.2909   223.2571 </r>
       <r>    43.4505    10.2155   223.6532 </r>
       <r>    43.4893    11.5284   224.1002 </r>
       <r>    43.5281    12.0243   224.5664 </r>
       <r>    43.5668     7.8447   224.8705 </r>
       <r>    43.6056     5.1973   225.0720 </r>
       <r>    43.6444     5.3283   225.2786 </r>
       <r>    43.6831     6.3229   225.5237 </r>
       <r>    43.7219     6.3527   225.7700 </r>
       <r>    43.7607     7.1873   226.0487 </r>
       <r>    43.7995     7.1536   226.3261 </r>
       <r>    43.8382     5.3104   226.5320 </r>
       <r>    43.8770     4.2559   226.6970 </r>
       <r>    43.9158     5.5832   226.9134 </r>
       <r>    43.9545     6.1911   227.1535 </r>
       <r>    43.9933     4.6915   227.3354 </r>
       <r>    44.0321     4.1604   227.4967 </r>
       <r>    44.0709     6.2535   227.7391 </r>
       <r>    44.1096     7.9317   228.0467 </r>
       <r>    44.1484     8.8466   228.3896 </r>
       <r>    44.1872     7.6746   228.6872 </r>
       <r>    44.2259     5.9119   228.9164 </r>
       <r>    44.2647     7.1226   229.1926 </r>
       <r>    44.3035     7.6905   229.4907 </r>
       <r>    44.3423     4.5331   229.6665 </r>
       <r>    44.3810     2.7009   229.7712 </r>
       <r>    44.4198     5.2005   229.9728 </r>
       <r>    44.4586     9.2317   230.3308 </r>
       <r>    44.4973    11.5547   230.7788 </r>
       <r>    44.5361     9.8847   231.1620 </r>
       <r>    44.5749     6.0184   231.3953 </r>
       <r>    44.6137     5.5269   231.6096 </r>
       <r>    44.6524     6.9842   231.8804 </r>
       <r>    44.6912     5.4444   232.0915 </r>
       <r>    44.7300     4.7284   232.2748 </r>
       <r>    44.7687     5.4847   232.4875 </r>
       <r>    44.8075     5.7363   232.7099 </r>
       <r>    44.8463     6.4658   232.9606 </r>
       <r>    44.8851     5.4853   233.1732 </r>
       <r>    44.9238     5.8460   233.3999 </r>
       <r>    44.9626     7.4870   233.6902 </r>
       <r>    45.0014     6.1278   233.9278 </r>
       <r>    45.0401     3.4700   234.0623 </r>
       <r>    45.0789     3.2008   234.1864 </r>
       <r>    45.1177     4.0973   234.3453 </r>
       <r>    45.1565     5.7678   234.5689 </r>
       <r>    45.1952     7.6012   234.8636 </r>
       <r>    45.2340     7.5667   235.1570 </r>
       <r>    45.2728     7.1222   235.4331 </r>
       <r>    45.3115     4.5271   235.6086 </r>
       <r>    45.3503     3.9661   235.7624 </r>
       <r>    45.3891     5.6087   235.9799 </r>
       <r>    45.4279     8.9039   236.3251 </r>
       <r>    45.4666    13.3849   236.8440 </r>
       <r>    45.5054    11.8704   237.3043 </r>
       <r>    45.5442     7.9418   237.6122 </r>
       <r>    45.5829     6.0245   237.8457 </r>
       <r>    45.6217     5.1345   238.0448 </r>
       <r>    45.6605     5.3389   238.2518 </r>
       <r>    45.6993     7.5542   238.5447 </r>
       <r>    45.7380     9.9686   238.9312 </r>
       <r>    45.7768     9.8631   239.3136 </r>
       <r>    45.8156     7.3654   239.5992 </r>
       <r>    45.8543     7.2448   239.8801 </r>
       <r>    45.8931     7.2918   240.1628 </r>
       <r>    45.9319     6.4810   240.4141 </r>
       <r>    45.9707     3.8749   240.5643 </r>
       <r>    46.0094     1.1286   240.6080 </r>
       <r>    46.0482     0.9723   240.6457 </r>
       <r>    46.0870     2.7410   240.7520 </r>
       <r>    46.1257     4.1835   240.9142 </r>
       <r>    46.1645     4.8844   241.1036 </r>
       <r>    46.2033     4.0576   241.2609 </r>
       <r>    46.2421     3.2764   241.3879 </r>
       <r>    46.2808     4.2124   241.5513 </r>
       <r>    46.3196     4.5917   241.7293 </r>
       <r>    46.3584     3.7685   241.8754 </r>
       <r>    46.3971     3.5989   242.0149 </r>
       <r>    46.4359     3.8386   242.1638 </r>
       <r>    46.4747     3.2253   242.2888 </r>
       <r>    46.5135     4.2689   242.4543 </r>
       <r>    46.5522     5.7491   242.6772 </r>
       <r>    46.5910     5.0764   242.8740 </r>
       <r>    46.6298     5.0384   243.0694 </r>
       <r>    46.6685     7.6550   243.3662 </r>
       <r>    46.7073     8.3525   243.6900 </r>
       <r>    46.7461     6.6012   243.9460 </r>
       <r>    46.7849     6.3605   244.1926 </r>
       <r>    46.8236     9.3674   244.5557 </r>
       <r>    46.8624    11.3089   244.9942 </r>
       <r>    46.9012     7.1185   245.2702 </r>
       <r>    46.9399     3.1032   245.3905 </r>
       <r>    46.9787     3.6552   245.5322 </r>
       <r>    47.0175     4.7074   245.7148 </r>
       <r>    47.0563     6.4308   245.9641 </r>
       <r>    47.0950    10.2493   246.3615 </r>
       <r>    47.1338     9.7516   246.7395 </r>
       <r>    47.1726     5.4379   246.9504 </r>
       <r>    47.2113     4.3066   247.1174 </r>
       <r>    47.2501     6.7673   247.3797 </r>
       <r>    47.2889     9.5633   247.7505 </r>
       <r>    47.3277     7.4540   248.0395 </r>
       <r>    47.3664     4.8091   248.2260 </r>
       <r>    47.4052     5.3482   248.4333 </r>
       <r>    47.4440     6.5117   248.6858 </r>
       <r>    47.4827     7.9956   248.9958 </r>
       <r>    47.5215     9.3872   249.3598 </r>
       <r>    47.5603     5.9147   249.5891 </r>
       <r>    47.5991     2.5550   249.6881 </r>
       <r>    47.6378     3.7118   249.8320 </r>
       <r>    47.6766     6.1942   250.0722 </r>
       <r>    47.7154     4.8597   250.2606 </r>
       <r>    47.7541     4.9334   250.4519 </r>
       <r>    47.7929     8.1534   250.7680 </r>
       <r>    47.8317    10.1094   251.1600 </r>
       <r>    47.8705     9.5735   251.5311 </r>
       <r>    47.9092     7.4895   251.8215 </r>
       <r>    47.9480     5.7841   252.0458 </r>
       <r>    47.9868     5.9750   252.2774 </r>
       <r>    48.0255     6.5484   252.5313 </r>
       <r>    48.0643     6.8041   252.7951 </r>
       <r>    48.1031     7.3163   253.0788 </r>
       <r>    48.1419     7.5893   253.3730 </r>
       <r>    48.1806     5.6397   253.5917 </r>
       <r>    48.2194     3.6795   253.7344 </r>
       <r>    48.2582     3.8385   253.8832 </r>
       <r>    48.2969     3.7539   254.0287 </r>
       <r>    48.3357     2.3706   254.1206 </r>
       <r>    48.3745     3.1133   254.2414 </r>
       <r>    48.4133     3.5557   254.3792 </r>
       <r>    48.4520     1.5421   254.4390 </r>
       <r>    48.4908     0.4504   254.4565 </r>
       <r>    48.5296     1.6177   254.5192 </r>
       <r>    48.5683     4.2031   254.6821 </r>
       <r>    48.6071     4.2231   254.8459 </r>
       <r>    48.6459     1.7707   254.9145 </r>
       <r>    48.6847     0.3270   254.9272 </r>
       <r>    48.7234     0.1298   254.9322 </r>
       <r>    48.7622     0.8714   254.9660 </r>
       <r>    48.8010     2.5209   255.0638 </r>
       <r>    48.8397     2.6778   255.1676 </r>
       <r>    48.8785     1.0758   255.2093 </r>
       <r>    48.9173     0.1729   255.2160 </r>
       <r>    48.9561     0.0979   255.2198 </r>
       <r>    48.9948     0.2871   255.2309 </r>
       <r>    49.0336     0.3118   255.2430 </r>
       <r>    49.0724     0.1141   255.2474 </r>
       <r>    49.1111     0.0139   255.2480 </r>
       <r>    49.1499     0.0006   255.2480 </r>
       <r>    49.1887     0.0000   255.2480 </r>
       <r>    49.2275     0.0000   255.2480 </r>
       <r>    49.2662     0.0000   255.2480 </r>
       <r>    49.3050     0.0006   255.2480 </r>
       <r>    49.3438     0.0222   255.2489 </r>
       <r>    49.3825     0.3018   255.2606 </r>
       <r>    49.4213     1.5169   255.3194 </r>
       <r>    49.4601     2.8971   255.4317 </r>
       <r>    49.4989     2.0885   255.5127 </r>
       <r>    49.5376     0.5492   255.5340 </r>
       <r>    49.5764     0.0503   255.5359 </r>
       <r>    49.6152     0.0015   255.5360 </r>
       <r>    49.6539     0.0005   255.5360 </r>
       <r>    49.6927     0.0224   255.5369 </r>
       <r>    49.7315     0.3045   255.5487 </r>
       <r>    49.7703     1.3632   255.6016 </r>
       <r>    49.8090     2.0445   255.6808 </r>
       <r>    49.8478     1.0332   255.7209 </r>
       <r>    49.8866     0.1933   255.7284 </r>
       <r>    49.9253     0.2892   255.7396 </r>
       <r>    49.9641     1.3549   255.7921 </r>
       <r>    50.0029     2.2182   255.8781 </r>
       <r>    50.0417     1.2410   255.9262 </r>
       <r>    50.0804     0.2506   255.9360 </r>
       <r>    50.1192     0.1310   255.9410 </r>
       <r>    50.1580     0.3380   255.9541 </r>
       <r>    50.1967     0.4473   255.9715 </r>
       <r>    50.2355     0.4260   255.9880 </r>
       <r>    50.2743     0.2479   255.9976 </r>
       <r>    50.3131     0.0570   255.9998 </r>
       <r>    50.3518     0.0044   256.0000 </r>
       <r>    50.3906     0.0001   256.0000 </r>
       <r>    50.4294     0.0000   256.0000 </r>
       <r>    50.4681     0.0000   256.0000 </r>
       <r>    50.5069     0.0000   256.0000 </r>
       <r>    50.5457     0.0000   256.0000 </r>
       <r>    50.5845     0.0000   256.0000 </r>
       <r>    50.6232     0.0000   256.0000 </r>
       <r>    50.6620     0.0000   256.0000 </r>
       <r>    50.7008     0.0000   256.0000 </r>
       <r>    50.7395     0.0000   256.0000 </r>
       <r>    50.7783     0.0000   256.0000 </r>
       <r>    50.8171     0.0000   256.0000 </r>
       <r>    50.8559     0.0000   256.0000 </r>
       <r>    50.8946     0.0000   256.0000 </r>
       <r>    50.9334     0.0000   256.0000 </r>
       <r>    50.9722     0.0000   256.0000 </r>
       <r>    51.0109     0.0000   256.0000 </r>
       <r>    51.0497     0.0000   256.0000 </r>
       <r>    51.0885     0.0000   256.0000 </r>
       <r>    51.1273     0.0000   256.0000 </r>
       <r>    51.1660     0.0000   256.0000 </r>
       <r>    51.2048     0.0000   256.0000 </r>
       <r>    51.2436     0.0000   256.0000 </r>
       <r>    51.2823     0.0000   256.0000 </r>
       <r>    51.3211     0.0000   256.0000 </r>
       <r>    51.3599     0.0000   256.0000 </r>
       <r>    51.3987     0.0000   256.0000 </r>
       <r>    51.4374     0.0000   256.0000 </r>
       <r>    51.4762     0.0000   256.0000 </r>
       <r>    51.5150     0.0000   256.0000 </r>
       <r>    51.5537     0.0000   256.0000 </r>
       <r>    51.5925     0.0000   256.0000 </r>
       <r>    51.6313     0.0000   256.0000 </r>
       <r>    51.6701     0.0000   256.0000 </r>
       <r>    51.7088     0.0000   256.0000 </r>
       <r>    51.7476     0.0000   256.0000 </r>
       <r>    51.7864     0.0000   256.0000 </r>
       <r>    51.8251     0.0000   256.0000 </r>
       <r>    51.8639     0.0000   256.0000 </r>
       <r>    51.9027     0.0000   256.0000 </r>
       <r>    51.9415     0.0000   256.0000 </r>
       <r>    51.9802     0.0000   256.0000 </r>
       <r>    52.0190     0.0000   256.0000 </r>
       <r>    52.0578     0.0000   256.0000 </r>
       <r>    52.0965     0.0000   256.0000 </r>
       <r>    52.1353     0.0000   256.0000 </r>
       <r>    52.1741     0.0000   256.0000 </r>
       <r>    52.2129     0.0000   256.0000 </r>
       <r>    52.2516     0.0000   256.0000 </r>
       <r>    52.2904     0.0000   256.0000 </r>
       <r>    52.3292     0.0000   256.0000 </r>
       <r>    52.3679     0.0000   256.0000 </r>
       <r>    52.4067     0.0000   256.0000 </r>
       <r>    52.4455     0.0000   256.0000 </r>
       <r>    52.4843     0.0000   256.0000 </r>
       <r>    52.5230     0.0000   256.0000 </r>
       <r>    52.5618     0.0000   256.0000 </r>
       <r>    52.6006     0.0000   256.0000 </r>
       <r>    52.6393     0.0000   256.0000 </r>
       <r>    52.6781     0.0000   256.0000 </r>
       <r>    52.7169     0.0000   256.0000 </r>
       <r>    52.7557     0.0000   256.0000 </r>
       <r>    52.7944     0.0000   256.0000 </r>
       <r>    52.8332     0.0000   256.0000 </r>
       <r>    52.8720     0.0000   256.0000 </r>
       <r>    52.9107     0.0000   256.0000 </r>
       <r>    52.9495     0.0000   256.0000 </r>
       <r>    52.9883     0.0000   256.0000 </r>
       <r>    53.0270     0.0000   256.0000 </r>
       <r>    53.0658     0.0000   256.0000 </r>
       <r>    53.1046     0.0000   256.0000 </r>
       <r>    53.1434     0.0000   256.0000 </r>
       <r>    53.1821     0.0000   256.0000 </r>
       <r>    53.2209     0.0000   256.0000 </r>
       <r>    53.2597     0.0000   256.0000 </r>
       <r>    53.2984     0.0000   256.0000 </r>
       <r>    53.3372     0.0000   256.0000 </r>
       <r>    53.3760     0.0000   256.0000 </r>
       <r>    53.4148     0.0000   256.0000 </r>
       <r>    53.4535     0.0000   256.0000 </r>
       <r>    53.4923     0.0000   256.0000 </r>
       <r>    53.5311     0.0000   256.0000 </r>
       <r>    53.5698     0.0000   256.0000 </r>
       <r>    53.6086     0.0000   256.0000 </r>
       <r>    53.6474     0.0000   256.0000 </r>
       <r>    53.6862     0.0000   256.0000 </r>
       <r>    53.7249     0.0000   256.0000 </r>
       <r>    53.7637     0.0000   256.0000 </r>
       <r>    53.8025     0.0000   256.0000 </r>
       <r>    53.8412     0.0000   256.0000 </r>
       <r>    53.8800     0.0000   256.0000 </r>
       <r>    53.9188     0.0000   256.0000 </r>
       <r>    53.9576     0.0000   256.0000 </r>
       <r>    53.9963     0.0000   256.0000 </r>
       <r>    54.0351     0.0000   256.0000 </r>
       <r>    54.0739     0.0000   256.0000 </r>
       <r>    54.1126     0.0000   256.0000 </r>
       <r>    54.1514     0.0000   256.0000 </r>
       <r>    54.1902     0.0000   256.0000 </r>
       <r>    54.2290     0.0000   256.0000 </r>
       <r>    54.2677     0.0000   256.0000 </r>
       <r>    54.3065     0.0000   256.0000 </r>
       <r>    54.3453     0.0000   256.0000 </r>
       <r>    54.3840     0.0000   256.0000 </r>
       <r>    54.4228     0.0000   256.0000 </r>
       <r>    54.4616     0.0000   256.0000 </r>
       <r>    54.5004     0.0000   256.0000 </r>
       <r>    54.5391     0.0000   256.0000 </r>
       <r>    54.5779     0.0000   256.0000 </r>
       <r>    54.6167     0.0000   256.0000 </r>
       <r>    54.6554     0.0000   256.0000 </r>
       <r>    54.6942     0.0000   256.0000 </r>
       <r>    54.7330     0.0000   256.0000 </r>
       <r>    54.7718     0.0000   256.0000 </r>
       <r>    54.8105     0.0000   256.0000 </r>
       <r>    54.8493     0.0000   256.0000 </r>
       <r>    54.8881     0.0000   256.0000 </r>
       <r>    54.9268     0.0000   256.0000 </r>
       <r>    54.9656     0.0000   256.0000 </r>
       <r>    55.0044     0.0000   256.0000 </r>
       <r>    55.0432     0.0000   256.0000 </r>
       <r>    55.0819     0.0000   256.0000 </r>
       <r>    55.1207     0.0000   256.0000 </r>
       <r>    55.1595     0.0000   256.0000 </r>
       <r>    55.1982     0.0000   256.0000 </r>
       <r>    55.2370     0.0000   256.0000 </r>
       <r>    55.2758     0.0000   256.0000 </r>
       <r>    55.3146     0.0000   256.0000 </r>
       <r>    55.3533     0.0000   256.0000 </r>
       <r>    55.3921     0.0000   256.0000 </r>
       <r>    55.4309     0.0000   256.0000 </r>
       <r>    55.4696     0.0000   256.0000 </r>
       <r>    55.5084     0.0000   256.0000 </r>
      </set>
     </set>
    </array>
   </total>
  </dos>
 </calculation>
 <structure name="finalpos" >
  <crystal>
   <varray name="basis" >
    <v>       3.17926782      -0.00000000       0.00000000 </v>
    <v>      -1.58963391       2.75332600       0.00000000 </v>
    <v>       0.00000000       0.00000000      13.74528273 </v>
   </varray>
   <i name="volume">    120.32016749 </i>
   <varray name="rec_basis" >
    <v>       0.31453783       0.18159855       0.00000000 </v>
    <v>       0.00000000       0.36319709       0.00000000 </v>
    <v>       0.00000000       0.00000000       0.07275223 </v>
   </varray>
  </crystal>
  <varray name="positions" >
   <v>       0.66666700       0.33333300       0.25000000 </v>
   <v>       0.33333300       0.66666700       0.75000000 </v>
   <v>       0.33333300       0.66666700       0.13608426 </v>
   <v>       0.66666700       0.33333300       0.63608426 </v>
   <v>       0.33333300       0.66666700       0.36391574 </v>
   <v>       0.66666700       0.33333300       0.86391574 </v>
  </varray>
 </structure>
</modeling>
