2H-MoS2                                 
           1
     3.179268   -0.000000    0.000000
    -1.589634    2.753326    0.000000
     0.000000    0.000000   13.745283
   Mo   S 
   2   4
Direct configuration=     1
   0.66666700  0.33333300  0.25000000
   0.33333300  0.66666700  0.75000000
   0.33333300  0.66666700  0.13608426
   0.66666700  0.33333300  0.63608426
   0.33333300  0.66666700  0.36391574
   0.66666700  0.33333300  0.86391574
