   6   6   0   0
  0.2057358E+02  0.3193000E-09  0.3193000E-09  0.1398082E-08  0.5000000E-15
  1.000000000000000E-004
  CAR 
 MoTe2                                   
     30.77729127    -59.89058179 3000      5.65397502      1.00000000
    -59.891  0.0000E+00  0.0000E+00
    -59.860  0.0000E+00  0.0000E+00
    -59.830  0.0000E+00  0.0000E+00
    -59.800  0.0000E+00  0.0000E+00
    -59.770  0.0000E+00  0.0000E+00
    -59.739  0.0000E+00  0.0000E+00
    -59.709  0.0000E+00  0.0000E+00
    -59.679  0.0000E+00  0.0000E+00
    -59.649  0.0000E+00  0.0000E+00
    -59.618  0.0000E+00  0.0000E+00
    -59.588  0.0000E+00  0.0000E+00
    -59.558  0.0000E+00  0.0000E+00
    -59.528  0.0000E+00  0.0000E+00
    -59.498  0.0000E+00  0.0000E+00
    -59.467  0.0000E+00  0.0000E+00
    -59.437  0.0000E+00  0.0000E+00
    -59.407  0.0000E+00  0.0000E+00
    -59.377  0.0000E+00  0.0000E+00
    -59.346  0.0000E+00  0.0000E+00
    -59.316  0.0000E+00  0.0000E+00
    -59.286  0.0000E+00  0.0000E+00
    -59.256  0.0000E+00  0.0000E+00
    -59.225  0.0000E+00  0.0000E+00
    -59.195  0.0000E+00  0.0000E+00
    -59.165  0.0000E+00  0.0000E+00
    -59.135  0.0000E+00  0.0000E+00
    -59.105  0.0000E+00  0.0000E+00
    -59.074  0.0000E+00  0.0000E+00
    -59.044  0.0000E+00  0.0000E+00
    -59.014  0.0000E+00  0.0000E+00
    -58.984  0.0000E+00  0.0000E+00
    -58.953  0.0000E+00  0.0000E+00
    -58.923  0.0000E+00  0.0000E+00
    -58.893  0.0000E+00  0.0000E+00
    -58.863  0.0000E+00  0.0000E+00
    -58.832  0.0000E+00  0.0000E+00
    -58.802  0.0000E+00  0.0000E+00
    -58.772  0.0000E+00  0.0000E+00
    -58.742  0.0000E+00  0.0000E+00
    -58.712  0.0000E+00  0.0000E+00
    -58.681  0.0000E+00  0.0000E+00
    -58.651  0.0000E+00  0.0000E+00
    -58.621  0.0000E+00  0.0000E+00
    -58.591  0.0000E+00  0.0000E+00
    -58.560  0.0000E+00  0.0000E+00
    -58.530  0.0000E+00  0.0000E+00
    -58.500  0.0000E+00  0.0000E+00
    -58.470  0.0000E+00  0.0000E+00
    -58.439  0.0000E+00  0.0000E+00
    -58.409  0.0000E+00  0.0000E+00
    -58.379  0.0000E+00  0.0000E+00
    -58.349  0.0000E+00  0.0000E+00
    -58.318  0.0000E+00  0.0000E+00
    -58.288  0.0000E+00  0.0000E+00
    -58.258  0.0000E+00  0.0000E+00
    -58.228  0.0000E+00  0.0000E+00
    -58.198  0.0000E+00  0.0000E+00
    -58.167  0.0000E+00  0.0000E+00
    -58.137  0.0000E+00  0.0000E+00
    -58.107  0.0000E+00  0.0000E+00
    -58.077  0.0000E+00  0.0000E+00
    -58.046  0.0000E+00  0.0000E+00
    -58.016  0.0000E+00  0.0000E+00
    -57.986  0.0000E+00  0.0000E+00
    -57.956  0.0000E+00  0.0000E+00
    -57.925  0.0000E+00  0.0000E+00
    -57.895  0.0000E+00  0.0000E+00
    -57.865  0.0000E+00  0.0000E+00
    -57.835  0.0000E+00  0.0000E+00
    -57.805  0.0000E+00  0.0000E+00
    -57.774  0.0000E+00  0.0000E+00
    -57.744  0.0000E+00  0.0000E+00
    -57.714  0.0000E+00  0.0000E+00
    -57.684  0.0000E+00  0.0000E+00
    -57.653  0.0000E+00  0.0000E+00
    -57.623  0.0000E+00  0.0000E+00
    -57.593  0.0000E+00  0.0000E+00
    -57.563  0.0000E+00  0.0000E+00
    -57.532  0.0000E+00  0.0000E+00
    -57.502  0.0000E+00  0.0000E+00
    -57.472  0.0000E+00  0.0000E+00
    -57.442  0.0000E+00  0.0000E+00
    -57.412  0.0000E+00  0.0000E+00
    -57.381  0.0000E+00  0.0000E+00
    -57.351  0.0000E+00  0.0000E+00
    -57.321  0.0000E+00  0.0000E+00
    -57.291  0.0000E+00  0.0000E+00
    -57.260  0.0000E+00  0.0000E+00
    -57.230  0.0000E+00  0.0000E+00
    -57.200  0.0000E+00  0.0000E+00
    -57.170  0.0000E+00  0.0000E+00
    -57.139  0.0000E+00  0.0000E+00
    -57.109  0.0000E+00  0.0000E+00
    -57.079  0.0000E+00  0.0000E+00
    -57.049  0.0000E+00  0.0000E+00
    -57.018  0.0000E+00  0.0000E+00
    -56.988  0.0000E+00  0.0000E+00
    -56.958  0.0000E+00  0.0000E+00
    -56.928  0.0000E+00  0.0000E+00
    -56.898  0.0000E+00  0.0000E+00
    -56.867  0.0000E+00  0.0000E+00
    -56.837  0.0000E+00  0.0000E+00
    -56.807  0.0000E+00  0.0000E+00
    -56.777  0.0000E+00  0.0000E+00
    -56.746  0.0000E+00  0.0000E+00
    -56.716  0.0000E+00  0.0000E+00
    -56.686  0.0000E+00  0.0000E+00
    -56.656  0.0000E+00  0.0000E+00
    -56.625  0.0000E+00  0.0000E+00
    -56.595  0.0000E+00  0.0000E+00
    -56.565  0.0000E+00  0.0000E+00
    -56.535  0.0000E+00  0.0000E+00
    -56.505  0.0000E+00  0.0000E+00
    -56.474  0.0000E+00  0.0000E+00
    -56.444  0.0000E+00  0.0000E+00
    -56.414  0.0000E+00  0.0000E+00
    -56.384  0.0000E+00  0.0000E+00
    -56.353  0.0000E+00  0.0000E+00
    -56.323  0.0000E+00  0.0000E+00
    -56.293  0.0000E+00  0.0000E+00
    -56.263  0.0000E+00  0.0000E+00
    -56.232  0.0000E+00  0.0000E+00
    -56.202  0.0000E+00  0.0000E+00
    -56.172  0.0000E+00  0.0000E+00
    -56.142  0.0000E+00  0.0000E+00
    -56.111  0.0000E+00  0.0000E+00
    -56.081  0.0000E+00  0.0000E+00
    -56.051  0.4718E-14  0.1426E-15
    -56.021  0.4153E-11  0.1257E-12
    -55.991  0.1633E-08  0.4951E-10
    -55.960  0.3207E-06  0.9744E-08
    -55.930  0.3172E-04  0.9686E-06
    -55.900  0.1601E-02  0.4936E-04
    -55.870  0.4183E-01  0.1314E-02
    -55.839  0.5754E+00  0.1871E-01
    -55.809  0.4226E+01  0.1465E+00
    -55.779  0.1672E+02  0.6520E+00
    -55.749  0.3570E+02  0.1731E+01
    -55.718  0.4088E+02  0.2967E+01
    -55.688  0.2484E+02  0.3718E+01
    -55.658  0.7904E+01  0.3957E+01
    -55.628  0.1301E+01  0.3997E+01
    -55.598  0.1093E+00  0.4000E+01
    -55.567  0.4643E-02  0.4000E+01
    -55.537  0.9881E-04  0.4000E+01
    -55.507  0.1046E-05  0.4000E+01
    -55.477  0.5472E-08  0.4000E+01
    -55.446  0.1409E-10  0.4000E+01
    -55.416  0.1561E-13  0.4000E+01
    -55.386  0.0000E+00  0.4000E+01
    -55.356  0.0000E+00  0.4000E+01
    -55.325  0.0000E+00  0.4000E+01
    -55.295  0.0000E+00  0.4000E+01
    -55.265  0.0000E+00  0.4000E+01
    -55.235  0.0000E+00  0.4000E+01
    -55.205  0.0000E+00  0.4000E+01
    -55.174  0.0000E+00  0.4000E+01
    -55.144  0.0000E+00  0.4000E+01
    -55.114  0.0000E+00  0.4000E+01
    -55.084  0.0000E+00  0.4000E+01
    -55.053  0.0000E+00  0.4000E+01
    -55.023  0.0000E+00  0.4000E+01
    -54.993  0.0000E+00  0.4000E+01
    -54.963  0.0000E+00  0.4000E+01
    -54.932  0.0000E+00  0.4000E+01
    -54.902  0.0000E+00  0.4000E+01
    -54.872  0.0000E+00  0.4000E+01
    -54.842  0.0000E+00  0.4000E+01
    -54.811  0.0000E+00  0.4000E+01
    -54.781  0.0000E+00  0.4000E+01
    -54.751  0.0000E+00  0.4000E+01
    -54.721  0.0000E+00  0.4000E+01
    -54.691  0.0000E+00  0.4000E+01
    -54.660  0.0000E+00  0.4000E+01
    -54.630  0.0000E+00  0.4000E+01
    -54.600  0.0000E+00  0.4000E+01
    -54.570  0.0000E+00  0.4000E+01
    -54.539  0.0000E+00  0.4000E+01
    -54.509  0.0000E+00  0.4000E+01
    -54.479  0.0000E+00  0.4000E+01
    -54.449  0.0000E+00  0.4000E+01
    -54.418  0.0000E+00  0.4000E+01
    -54.388  0.0000E+00  0.4000E+01
    -54.358  0.0000E+00  0.4000E+01
    -54.328  0.0000E+00  0.4000E+01
    -54.298  0.0000E+00  0.4000E+01
    -54.267  0.0000E+00  0.4000E+01
    -54.237  0.0000E+00  0.4000E+01
    -54.207  0.0000E+00  0.4000E+01
    -54.177  0.0000E+00  0.4000E+01
    -54.146  0.0000E+00  0.4000E+01
    -54.116  0.0000E+00  0.4000E+01
    -54.086  0.0000E+00  0.4000E+01
    -54.056  0.0000E+00  0.4000E+01
    -54.025  0.0000E+00  0.4000E+01
    -53.995  0.0000E+00  0.4000E+01
    -53.965  0.0000E+00  0.4000E+01
    -53.935  0.0000E+00  0.4000E+01
    -53.905  0.0000E+00  0.4000E+01
    -53.874  0.0000E+00  0.4000E+01
    -53.844  0.0000E+00  0.4000E+01
    -53.814  0.0000E+00  0.4000E+01
    -53.784  0.0000E+00  0.4000E+01
    -53.753  0.0000E+00  0.4000E+01
    -53.723  0.0000E+00  0.4000E+01
    -53.693  0.0000E+00  0.4000E+01
    -53.663  0.0000E+00  0.4000E+01
    -53.632  0.0000E+00  0.4000E+01
    -53.602  0.0000E+00  0.4000E+01
    -53.572  0.0000E+00  0.4000E+01
    -53.542  0.0000E+00  0.4000E+01
    -53.511  0.0000E+00  0.4000E+01
    -53.481  0.0000E+00  0.4000E+01
    -53.451  0.0000E+00  0.4000E+01
    -53.421  0.0000E+00  0.4000E+01
    -53.391  0.0000E+00  0.4000E+01
    -53.360  0.0000E+00  0.4000E+01
    -53.330  0.0000E+00  0.4000E+01
    -53.300  0.0000E+00  0.4000E+01
    -53.270  0.0000E+00  0.4000E+01
    -53.239  0.0000E+00  0.4000E+01
    -53.209  0.0000E+00  0.4000E+01
    -53.179  0.0000E+00  0.4000E+01
    -53.149  0.0000E+00  0.4000E+01
    -53.118  0.0000E+00  0.4000E+01
    -53.088  0.0000E+00  0.4000E+01
    -53.058  0.0000E+00  0.4000E+01
    -53.028  0.0000E+00  0.4000E+01
    -52.998  0.0000E+00  0.4000E+01
    -52.967  0.0000E+00  0.4000E+01
    -52.937  0.0000E+00  0.4000E+01
    -52.907  0.0000E+00  0.4000E+01
    -52.877  0.0000E+00  0.4000E+01
    -52.846  0.0000E+00  0.4000E+01
    -52.816  0.0000E+00  0.4000E+01
    -52.786  0.0000E+00  0.4000E+01
    -52.756  0.0000E+00  0.4000E+01
    -52.725  0.0000E+00  0.4000E+01
    -52.695  0.0000E+00  0.4000E+01
    -52.665  0.0000E+00  0.4000E+01
    -52.635  0.0000E+00  0.4000E+01
    -52.605  0.0000E+00  0.4000E+01
    -52.574  0.0000E+00  0.4000E+01
    -52.544  0.0000E+00  0.4000E+01
    -52.514  0.0000E+00  0.4000E+01
    -52.484  0.0000E+00  0.4000E+01
    -52.453  0.0000E+00  0.4000E+01
    -52.423  0.0000E+00  0.4000E+01
    -52.393  0.0000E+00  0.4000E+01
    -52.363  0.0000E+00  0.4000E+01
    -52.332  0.0000E+00  0.4000E+01
    -52.302  0.0000E+00  0.4000E+01
    -52.272  0.0000E+00  0.4000E+01
    -52.242  0.0000E+00  0.4000E+01
    -52.211  0.0000E+00  0.4000E+01
    -52.181  0.0000E+00  0.4000E+01
    -52.151  0.0000E+00  0.4000E+01
    -52.121  0.0000E+00  0.4000E+01
    -52.091  0.0000E+00  0.4000E+01
    -52.060  0.0000E+00  0.4000E+01
    -52.030  0.0000E+00  0.4000E+01
    -52.000  0.0000E+00  0.4000E+01
    -51.970  0.0000E+00  0.4000E+01
    -51.939  0.0000E+00  0.4000E+01
    -51.909  0.0000E+00  0.4000E+01
    -51.879  0.0000E+00  0.4000E+01
    -51.849  0.0000E+00  0.4000E+01
    -51.818  0.0000E+00  0.4000E+01
    -51.788  0.0000E+00  0.4000E+01
    -51.758  0.0000E+00  0.4000E+01
    -51.728  0.0000E+00  0.4000E+01
    -51.698  0.0000E+00  0.4000E+01
    -51.667  0.0000E+00  0.4000E+01
    -51.637  0.0000E+00  0.4000E+01
    -51.607  0.0000E+00  0.4000E+01
    -51.577  0.0000E+00  0.4000E+01
    -51.546  0.0000E+00  0.4000E+01
    -51.516  0.0000E+00  0.4000E+01
    -51.486  0.0000E+00  0.4000E+01
    -51.456  0.0000E+00  0.4000E+01
    -51.425  0.0000E+00  0.4000E+01
    -51.395  0.0000E+00  0.4000E+01
    -51.365  0.0000E+00  0.4000E+01
    -51.335  0.0000E+00  0.4000E+01
    -51.304  0.0000E+00  0.4000E+01
    -51.274  0.0000E+00  0.4000E+01
    -51.244  0.0000E+00  0.4000E+01
    -51.214  0.0000E+00  0.4000E+01
    -51.184  0.0000E+00  0.4000E+01
    -51.153  0.0000E+00  0.4000E+01
    -51.123  0.0000E+00  0.4000E+01
    -51.093  0.0000E+00  0.4000E+01
    -51.063  0.0000E+00  0.4000E+01
    -51.032  0.0000E+00  0.4000E+01
    -51.002  0.0000E+00  0.4000E+01
    -50.972  0.0000E+00  0.4000E+01
    -50.942  0.0000E+00  0.4000E+01
    -50.911  0.0000E+00  0.4000E+01
    -50.881  0.0000E+00  0.4000E+01
    -50.851  0.0000E+00  0.4000E+01
    -50.821  0.0000E+00  0.4000E+01
    -50.791  0.0000E+00  0.4000E+01
    -50.760  0.0000E+00  0.4000E+01
    -50.730  0.0000E+00  0.4000E+01
    -50.700  0.0000E+00  0.4000E+01
    -50.670  0.0000E+00  0.4000E+01
    -50.639  0.0000E+00  0.4000E+01
    -50.609  0.0000E+00  0.4000E+01
    -50.579  0.0000E+00  0.4000E+01
    -50.549  0.0000E+00  0.4000E+01
    -50.518  0.0000E+00  0.4000E+01
    -50.488  0.0000E+00  0.4000E+01
    -50.458  0.0000E+00  0.4000E+01
    -50.428  0.0000E+00  0.4000E+01
    -50.398  0.0000E+00  0.4000E+01
    -50.367  0.0000E+00  0.4000E+01
    -50.337  0.0000E+00  0.4000E+01
    -50.307  0.0000E+00  0.4000E+01
    -50.277  0.0000E+00  0.4000E+01
    -50.246  0.0000E+00  0.4000E+01
    -50.216  0.0000E+00  0.4000E+01
    -50.186  0.0000E+00  0.4000E+01
    -50.156  0.0000E+00  0.4000E+01
    -50.125  0.0000E+00  0.4000E+01
    -50.095  0.0000E+00  0.4000E+01
    -50.065  0.0000E+00  0.4000E+01
    -50.035  0.0000E+00  0.4000E+01
    -50.004  0.0000E+00  0.4000E+01
    -49.974  0.0000E+00  0.4000E+01
    -49.944  0.0000E+00  0.4000E+01
    -49.914  0.0000E+00  0.4000E+01
    -49.884  0.0000E+00  0.4000E+01
    -49.853  0.0000E+00  0.4000E+01
    -49.823  0.0000E+00  0.4000E+01
    -49.793  0.0000E+00  0.4000E+01
    -49.763  0.0000E+00  0.4000E+01
    -49.732  0.0000E+00  0.4000E+01
    -49.702  0.0000E+00  0.4000E+01
    -49.672  0.0000E+00  0.4000E+01
    -49.642  0.0000E+00  0.4000E+01
    -49.611  0.0000E+00  0.4000E+01
    -49.581  0.0000E+00  0.4000E+01
    -49.551  0.0000E+00  0.4000E+01
    -49.521  0.0000E+00  0.4000E+01
    -49.491  0.0000E+00  0.4000E+01
    -49.460  0.0000E+00  0.4000E+01
    -49.430  0.0000E+00  0.4000E+01
    -49.400  0.0000E+00  0.4000E+01
    -49.370  0.0000E+00  0.4000E+01
    -49.339  0.0000E+00  0.4000E+01
    -49.309  0.0000E+00  0.4000E+01
    -49.279  0.0000E+00  0.4000E+01
    -49.249  0.0000E+00  0.4000E+01
    -49.218  0.0000E+00  0.4000E+01
    -49.188  0.0000E+00  0.4000E+01
    -49.158  0.0000E+00  0.4000E+01
    -49.128  0.0000E+00  0.4000E+01
    -49.098  0.0000E+00  0.4000E+01
    -49.067  0.0000E+00  0.4000E+01
    -49.037  0.0000E+00  0.4000E+01
    -49.007  0.0000E+00  0.4000E+01
    -48.977  0.0000E+00  0.4000E+01
    -48.946  0.0000E+00  0.4000E+01
    -48.916  0.0000E+00  0.4000E+01
    -48.886  0.0000E+00  0.4000E+01
    -48.856  0.0000E+00  0.4000E+01
    -48.825  0.0000E+00  0.4000E+01
    -48.795  0.0000E+00  0.4000E+01
    -48.765  0.0000E+00  0.4000E+01
    -48.735  0.0000E+00  0.4000E+01
    -48.704  0.0000E+00  0.4000E+01
    -48.674  0.0000E+00  0.4000E+01
    -48.644  0.0000E+00  0.4000E+01
    -48.614  0.0000E+00  0.4000E+01
    -48.584  0.0000E+00  0.4000E+01
    -48.553  0.0000E+00  0.4000E+01
    -48.523  0.0000E+00  0.4000E+01
    -48.493  0.0000E+00  0.4000E+01
    -48.463  0.0000E+00  0.4000E+01
    -48.432  0.0000E+00  0.4000E+01
    -48.402  0.0000E+00  0.4000E+01
    -48.372  0.0000E+00  0.4000E+01
    -48.342  0.0000E+00  0.4000E+01
    -48.311  0.0000E+00  0.4000E+01
    -48.281  0.0000E+00  0.4000E+01
    -48.251  0.0000E+00  0.4000E+01
    -48.221  0.0000E+00  0.4000E+01
    -48.191  0.0000E+00  0.4000E+01
    -48.160  0.0000E+00  0.4000E+01
    -48.130  0.0000E+00  0.4000E+01
    -48.100  0.0000E+00  0.4000E+01
    -48.070  0.0000E+00  0.4000E+01
    -48.039  0.0000E+00  0.4000E+01
    -48.009  0.0000E+00  0.4000E+01
    -47.979  0.0000E+00  0.4000E+01
    -47.949  0.0000E+00  0.4000E+01
    -47.918  0.0000E+00  0.4000E+01
    -47.888  0.0000E+00  0.4000E+01
    -47.858  0.0000E+00  0.4000E+01
    -47.828  0.0000E+00  0.4000E+01
    -47.798  0.0000E+00  0.4000E+01
    -47.767  0.0000E+00  0.4000E+01
    -47.737  0.0000E+00  0.4000E+01
    -47.707  0.0000E+00  0.4000E+01
    -47.677  0.0000E+00  0.4000E+01
    -47.646  0.0000E+00  0.4000E+01
    -47.616  0.0000E+00  0.4000E+01
    -47.586  0.0000E+00  0.4000E+01
    -47.556  0.0000E+00  0.4000E+01
    -47.525  0.0000E+00  0.4000E+01
    -47.495  0.0000E+00  0.4000E+01
    -47.465  0.0000E+00  0.4000E+01
    -47.435  0.0000E+00  0.4000E+01
    -47.404  0.0000E+00  0.4000E+01
    -47.374  0.0000E+00  0.4000E+01
    -47.344  0.0000E+00  0.4000E+01
    -47.314  0.0000E+00  0.4000E+01
    -47.284  0.0000E+00  0.4000E+01
    -47.253  0.0000E+00  0.4000E+01
    -47.223  0.0000E+00  0.4000E+01
    -47.193  0.0000E+00  0.4000E+01
    -47.163  0.0000E+00  0.4000E+01
    -47.132  0.0000E+00  0.4000E+01
    -47.102  0.0000E+00  0.4000E+01
    -47.072  0.0000E+00  0.4000E+01
    -47.042  0.0000E+00  0.4000E+01
    -47.011  0.0000E+00  0.4000E+01
    -46.981  0.0000E+00  0.4000E+01
    -46.951  0.0000E+00  0.4000E+01
    -46.921  0.0000E+00  0.4000E+01
    -46.891  0.0000E+00  0.4000E+01
    -46.860  0.0000E+00  0.4000E+01
    -46.830  0.0000E+00  0.4000E+01
    -46.800  0.0000E+00  0.4000E+01
    -46.770  0.0000E+00  0.4000E+01
    -46.739  0.0000E+00  0.4000E+01
    -46.709  0.0000E+00  0.4000E+01
    -46.679  0.0000E+00  0.4000E+01
    -46.649  0.0000E+00  0.4000E+01
    -46.618  0.0000E+00  0.4000E+01
    -46.588  0.0000E+00  0.4000E+01
    -46.558  0.0000E+00  0.4000E+01
    -46.528  0.0000E+00  0.4000E+01
    -46.497  0.0000E+00  0.4000E+01
    -46.467  0.0000E+00  0.4000E+01
    -46.437  0.0000E+00  0.4000E+01
    -46.407  0.0000E+00  0.4000E+01
    -46.377  0.0000E+00  0.4000E+01
    -46.346  0.0000E+00  0.4000E+01
    -46.316  0.0000E+00  0.4000E+01
    -46.286  0.0000E+00  0.4000E+01
    -46.256  0.0000E+00  0.4000E+01
    -46.225  0.0000E+00  0.4000E+01
    -46.195  0.0000E+00  0.4000E+01
    -46.165  0.0000E+00  0.4000E+01
    -46.135  0.0000E+00  0.4000E+01
    -46.104  0.0000E+00  0.4000E+01
    -46.074  0.0000E+00  0.4000E+01
    -46.044  0.0000E+00  0.4000E+01
    -46.014  0.0000E+00  0.4000E+01
    -45.984  0.0000E+00  0.4000E+01
    -45.953  0.0000E+00  0.4000E+01
    -45.923  0.0000E+00  0.4000E+01
    -45.893  0.0000E+00  0.4000E+01
    -45.863  0.0000E+00  0.4000E+01
    -45.832  0.0000E+00  0.4000E+01
    -45.802  0.0000E+00  0.4000E+01
    -45.772  0.0000E+00  0.4000E+01
    -45.742  0.0000E+00  0.4000E+01
    -45.711  0.0000E+00  0.4000E+01
    -45.681  0.0000E+00  0.4000E+01
    -45.651  0.0000E+00  0.4000E+01
    -45.621  0.0000E+00  0.4000E+01
    -45.591  0.0000E+00  0.4000E+01
    -45.560  0.0000E+00  0.4000E+01
    -45.530  0.0000E+00  0.4000E+01
    -45.500  0.0000E+00  0.4000E+01
    -45.470  0.0000E+00  0.4000E+01
    -45.439  0.0000E+00  0.4000E+01
    -45.409  0.0000E+00  0.4000E+01
    -45.379  0.0000E+00  0.4000E+01
    -45.349  0.0000E+00  0.4000E+01
    -45.318  0.0000E+00  0.4000E+01
    -45.288  0.0000E+00  0.4000E+01
    -45.258  0.0000E+00  0.4000E+01
    -45.228  0.0000E+00  0.4000E+01
    -45.197  0.0000E+00  0.4000E+01
    -45.167  0.0000E+00  0.4000E+01
    -45.137  0.0000E+00  0.4000E+01
    -45.107  0.0000E+00  0.4000E+01
    -45.077  0.0000E+00  0.4000E+01
    -45.046  0.0000E+00  0.4000E+01
    -45.016  0.0000E+00  0.4000E+01
    -44.986  0.0000E+00  0.4000E+01
    -44.956  0.0000E+00  0.4000E+01
    -44.925  0.0000E+00  0.4000E+01
    -44.895  0.0000E+00  0.4000E+01
    -44.865  0.0000E+00  0.4000E+01
    -44.835  0.0000E+00  0.4000E+01
    -44.804  0.0000E+00  0.4000E+01
    -44.774  0.0000E+00  0.4000E+01
    -44.744  0.0000E+00  0.4000E+01
    -44.714  0.0000E+00  0.4000E+01
    -44.684  0.0000E+00  0.4000E+01
    -44.653  0.0000E+00  0.4000E+01
    -44.623  0.0000E+00  0.4000E+01
    -44.593  0.0000E+00  0.4000E+01
    -44.563  0.0000E+00  0.4000E+01
    -44.532  0.0000E+00  0.4000E+01
    -44.502  0.0000E+00  0.4000E+01
    -44.472  0.0000E+00  0.4000E+01
    -44.442  0.0000E+00  0.4000E+01
    -44.411  0.0000E+00  0.4000E+01
    -44.381  0.0000E+00  0.4000E+01
    -44.351  0.0000E+00  0.4000E+01
    -44.321  0.0000E+00  0.4000E+01
    -44.291  0.0000E+00  0.4000E+01
    -44.260  0.0000E+00  0.4000E+01
    -44.230  0.0000E+00  0.4000E+01
    -44.200  0.0000E+00  0.4000E+01
    -44.170  0.0000E+00  0.4000E+01
    -44.139  0.0000E+00  0.4000E+01
    -44.109  0.0000E+00  0.4000E+01
    -44.079  0.0000E+00  0.4000E+01
    -44.049  0.0000E+00  0.4000E+01
    -44.018  0.0000E+00  0.4000E+01
    -43.988  0.0000E+00  0.4000E+01
    -43.958  0.0000E+00  0.4000E+01
    -43.928  0.0000E+00  0.4000E+01
    -43.897  0.0000E+00  0.4000E+01
    -43.867  0.0000E+00  0.4000E+01
    -43.837  0.0000E+00  0.4000E+01
    -43.807  0.0000E+00  0.4000E+01
    -43.777  0.0000E+00  0.4000E+01
    -43.746  0.0000E+00  0.4000E+01
    -43.716  0.0000E+00  0.4000E+01
    -43.686  0.0000E+00  0.4000E+01
    -43.656  0.0000E+00  0.4000E+01
    -43.625  0.0000E+00  0.4000E+01
    -43.595  0.0000E+00  0.4000E+01
    -43.565  0.0000E+00  0.4000E+01
    -43.535  0.0000E+00  0.4000E+01
    -43.504  0.0000E+00  0.4000E+01
    -43.474  0.0000E+00  0.4000E+01
    -43.444  0.0000E+00  0.4000E+01
    -43.414  0.0000E+00  0.4000E+01
    -43.384  0.0000E+00  0.4000E+01
    -43.353  0.0000E+00  0.4000E+01
    -43.323  0.0000E+00  0.4000E+01
    -43.293  0.0000E+00  0.4000E+01
    -43.263  0.0000E+00  0.4000E+01
    -43.232  0.0000E+00  0.4000E+01
    -43.202  0.0000E+00  0.4000E+01
    -43.172  0.0000E+00  0.4000E+01
    -43.142  0.0000E+00  0.4000E+01
    -43.111  0.0000E+00  0.4000E+01
    -43.081  0.0000E+00  0.4000E+01
    -43.051  0.0000E+00  0.4000E+01
    -43.021  0.0000E+00  0.4000E+01
    -42.991  0.0000E+00  0.4000E+01
    -42.960  0.0000E+00  0.4000E+01
    -42.930  0.0000E+00  0.4000E+01
    -42.900  0.0000E+00  0.4000E+01
    -42.870  0.0000E+00  0.4000E+01
    -42.839  0.0000E+00  0.4000E+01
    -42.809  0.0000E+00  0.4000E+01
    -42.779  0.0000E+00  0.4000E+01
    -42.749  0.0000E+00  0.4000E+01
    -42.718  0.0000E+00  0.4000E+01
    -42.688  0.0000E+00  0.4000E+01
    -42.658  0.0000E+00  0.4000E+01
    -42.628  0.0000E+00  0.4000E+01
    -42.597  0.0000E+00  0.4000E+01
    -42.567  0.0000E+00  0.4000E+01
    -42.537  0.0000E+00  0.4000E+01
    -42.507  0.0000E+00  0.4000E+01
    -42.477  0.0000E+00  0.4000E+01
    -42.446  0.0000E+00  0.4000E+01
    -42.416  0.0000E+00  0.4000E+01
    -42.386  0.0000E+00  0.4000E+01
    -42.356  0.0000E+00  0.4000E+01
    -42.325  0.0000E+00  0.4000E+01
    -42.295  0.0000E+00  0.4000E+01
    -42.265  0.0000E+00  0.4000E+01
    -42.235  0.0000E+00  0.4000E+01
    -42.204  0.0000E+00  0.4000E+01
    -42.174  0.0000E+00  0.4000E+01
    -42.144  0.0000E+00  0.4000E+01
    -42.114  0.0000E+00  0.4000E+01
    -42.084  0.0000E+00  0.4000E+01
    -42.053  0.0000E+00  0.4000E+01
    -42.023  0.0000E+00  0.4000E+01
    -41.993  0.0000E+00  0.4000E+01
    -41.963  0.0000E+00  0.4000E+01
    -41.932  0.0000E+00  0.4000E+01
    -41.902  0.0000E+00  0.4000E+01
    -41.872  0.0000E+00  0.4000E+01
    -41.842  0.0000E+00  0.4000E+01
    -41.811  0.0000E+00  0.4000E+01
    -41.781  0.0000E+00  0.4000E+01
    -41.751  0.0000E+00  0.4000E+01
    -41.721  0.0000E+00  0.4000E+01
    -41.690  0.0000E+00  0.4000E+01
    -41.660  0.0000E+00  0.4000E+01
    -41.630  0.0000E+00  0.4000E+01
    -41.600  0.0000E+00  0.4000E+01
    -41.570  0.0000E+00  0.4000E+01
    -41.539  0.0000E+00  0.4000E+01
    -41.509  0.0000E+00  0.4000E+01
    -41.479  0.0000E+00  0.4000E+01
    -41.449  0.0000E+00  0.4000E+01
    -41.418  0.0000E+00  0.4000E+01
    -41.388  0.0000E+00  0.4000E+01
    -41.358  0.0000E+00  0.4000E+01
    -41.328  0.0000E+00  0.4000E+01
    -41.297  0.0000E+00  0.4000E+01
    -41.267  0.0000E+00  0.4000E+01
    -41.237  0.0000E+00  0.4000E+01
    -41.207  0.0000E+00  0.4000E+01
    -41.177  0.0000E+00  0.4000E+01
    -41.146  0.0000E+00  0.4000E+01
    -41.116  0.0000E+00  0.4000E+01
    -41.086  0.0000E+00  0.4000E+01
    -41.056  0.0000E+00  0.4000E+01
    -41.025  0.0000E+00  0.4000E+01
    -40.995  0.0000E+00  0.4000E+01
    -40.965  0.0000E+00  0.4000E+01
    -40.935  0.0000E+00  0.4000E+01
    -40.904  0.0000E+00  0.4000E+01
    -40.874  0.0000E+00  0.4000E+01
    -40.844  0.0000E+00  0.4000E+01
    -40.814  0.0000E+00  0.4000E+01
    -40.784  0.0000E+00  0.4000E+01
    -40.753  0.0000E+00  0.4000E+01
    -40.723  0.0000E+00  0.4000E+01
    -40.693  0.0000E+00  0.4000E+01
    -40.663  0.0000E+00  0.4000E+01
    -40.632  0.0000E+00  0.4000E+01
    -40.602  0.0000E+00  0.4000E+01
    -40.572  0.0000E+00  0.4000E+01
    -40.542  0.0000E+00  0.4000E+01
    -40.511  0.0000E+00  0.4000E+01
    -40.481  0.0000E+00  0.4000E+01
    -40.451  0.0000E+00  0.4000E+01
    -40.421  0.0000E+00  0.4000E+01
    -40.390  0.0000E+00  0.4000E+01
    -40.360  0.0000E+00  0.4000E+01
    -40.330  0.0000E+00  0.4000E+01
    -40.300  0.0000E+00  0.4000E+01
    -40.270  0.0000E+00  0.4000E+01
    -40.239  0.0000E+00  0.4000E+01
    -40.209  0.0000E+00  0.4000E+01
    -40.179  0.0000E+00  0.4000E+01
    -40.149  0.0000E+00  0.4000E+01
    -40.118  0.0000E+00  0.4000E+01
    -40.088  0.0000E+00  0.4000E+01
    -40.058  0.0000E+00  0.4000E+01
    -40.028  0.0000E+00  0.4000E+01
    -39.997  0.0000E+00  0.4000E+01
    -39.967  0.0000E+00  0.4000E+01
    -39.937  0.0000E+00  0.4000E+01
    -39.907  0.0000E+00  0.4000E+01
    -39.877  0.0000E+00  0.4000E+01
    -39.846  0.0000E+00  0.4000E+01
    -39.816  0.0000E+00  0.4000E+01
    -39.786  0.0000E+00  0.4000E+01
    -39.756  0.0000E+00  0.4000E+01
    -39.725  0.0000E+00  0.4000E+01
    -39.695  0.0000E+00  0.4000E+01
    -39.665  0.0000E+00  0.4000E+01
    -39.635  0.0000E+00  0.4000E+01
    -39.604  0.0000E+00  0.4000E+01
    -39.574  0.0000E+00  0.4000E+01
    -39.544  0.0000E+00  0.4000E+01
    -39.514  0.0000E+00  0.4000E+01
    -39.484  0.0000E+00  0.4000E+01
    -39.453  0.0000E+00  0.4000E+01
    -39.423  0.0000E+00  0.4000E+01
    -39.393  0.0000E+00  0.4000E+01
    -39.363  0.0000E+00  0.4000E+01
    -39.332  0.0000E+00  0.4000E+01
    -39.302  0.0000E+00  0.4000E+01
    -39.272  0.0000E+00  0.4000E+01
    -39.242  0.0000E+00  0.4000E+01
    -39.211  0.0000E+00  0.4000E+01
    -39.181  0.0000E+00  0.4000E+01
    -39.151  0.0000E+00  0.4000E+01
    -39.121  0.0000E+00  0.4000E+01
    -39.090  0.0000E+00  0.4000E+01
    -39.060  0.0000E+00  0.4000E+01
    -39.030  0.0000E+00  0.4000E+01
    -39.000  0.0000E+00  0.4000E+01
    -38.970  0.0000E+00  0.4000E+01
    -38.939  0.0000E+00  0.4000E+01
    -38.909  0.0000E+00  0.4000E+01
    -38.879  0.0000E+00  0.4000E+01
    -38.849  0.0000E+00  0.4000E+01
    -38.818  0.0000E+00  0.4000E+01
    -38.788  0.0000E+00  0.4000E+01
    -38.758  0.0000E+00  0.4000E+01
    -38.728  0.0000E+00  0.4000E+01
    -38.697  0.0000E+00  0.4000E+01
    -38.667  0.0000E+00  0.4000E+01
    -38.637  0.0000E+00  0.4000E+01
    -38.607  0.0000E+00  0.4000E+01
    -38.577  0.0000E+00  0.4000E+01
    -38.546  0.0000E+00  0.4000E+01
    -38.516  0.0000E+00  0.4000E+01
    -38.486  0.0000E+00  0.4000E+01
    -38.456  0.0000E+00  0.4000E+01
    -38.425  0.0000E+00  0.4000E+01
    -38.395  0.0000E+00  0.4000E+01
    -38.365  0.0000E+00  0.4000E+01
    -38.335  0.0000E+00  0.4000E+01
    -38.304  0.0000E+00  0.4000E+01
    -38.274  0.0000E+00  0.4000E+01
    -38.244  0.0000E+00  0.4000E+01
    -38.214  0.0000E+00  0.4000E+01
    -38.184  0.0000E+00  0.4000E+01
    -38.153  0.0000E+00  0.4000E+01
    -38.123  0.0000E+00  0.4000E+01
    -38.093  0.0000E+00  0.4000E+01
    -38.063  0.0000E+00  0.4000E+01
    -38.032  0.0000E+00  0.4000E+01
    -38.002  0.0000E+00  0.4000E+01
    -37.972  0.0000E+00  0.4000E+01
    -37.942  0.0000E+00  0.4000E+01
    -37.911  0.0000E+00  0.4000E+01
    -37.881  0.0000E+00  0.4000E+01
    -37.851  0.0000E+00  0.4000E+01
    -37.821  0.0000E+00  0.4000E+01
    -37.790  0.0000E+00  0.4000E+01
    -37.760  0.0000E+00  0.4000E+01
    -37.730  0.0000E+00  0.4000E+01
    -37.700  0.0000E+00  0.4000E+01
    -37.670  0.0000E+00  0.4000E+01
    -37.639  0.0000E+00  0.4000E+01
    -37.609  0.0000E+00  0.4000E+01
    -37.579  0.0000E+00  0.4000E+01
    -37.549  0.0000E+00  0.4000E+01
    -37.518  0.0000E+00  0.4000E+01
    -37.488  0.0000E+00  0.4000E+01
    -37.458  0.0000E+00  0.4000E+01
    -37.428  0.0000E+00  0.4000E+01
    -37.397  0.0000E+00  0.4000E+01
    -37.367  0.0000E+00  0.4000E+01
    -37.337  0.0000E+00  0.4000E+01
    -37.307  0.0000E+00  0.4000E+01
    -37.277  0.0000E+00  0.4000E+01
    -37.246  0.0000E+00  0.4000E+01
    -37.216  0.0000E+00  0.4000E+01
    -37.186  0.0000E+00  0.4000E+01
    -37.156  0.0000E+00  0.4000E+01
    -37.125  0.0000E+00  0.4000E+01
    -37.095  0.0000E+00  0.4000E+01
    -37.065  0.0000E+00  0.4000E+01
    -37.035  0.0000E+00  0.4000E+01
    -37.004  0.0000E+00  0.4000E+01
    -36.974  0.0000E+00  0.4000E+01
    -36.944  0.0000E+00  0.4000E+01
    -36.914  0.0000E+00  0.4000E+01
    -36.883  0.0000E+00  0.4000E+01
    -36.853  0.0000E+00  0.4000E+01
    -36.823  0.0000E+00  0.4000E+01
    -36.793  0.0000E+00  0.4000E+01
    -36.763  0.0000E+00  0.4000E+01
    -36.732  0.0000E+00  0.4000E+01
    -36.702  0.0000E+00  0.4000E+01
    -36.672  0.0000E+00  0.4000E+01
    -36.642  0.0000E+00  0.4000E+01
    -36.611  0.0000E+00  0.4000E+01
    -36.581  0.0000E+00  0.4000E+01
    -36.551  0.0000E+00  0.4000E+01
    -36.521  0.0000E+00  0.4000E+01
    -36.490  0.0000E+00  0.4000E+01
    -36.460  0.0000E+00  0.4000E+01
    -36.430  0.0000E+00  0.4000E+01
    -36.400  0.0000E+00  0.4000E+01
    -36.370  0.0000E+00  0.4000E+01
    -36.339  0.0000E+00  0.4000E+01
    -36.309  0.0000E+00  0.4000E+01
    -36.279  0.0000E+00  0.4000E+01
    -36.249  0.0000E+00  0.4000E+01
    -36.218  0.0000E+00  0.4000E+01
    -36.188  0.0000E+00  0.4000E+01
    -36.158  0.0000E+00  0.4000E+01
    -36.128  0.0000E+00  0.4000E+01
    -36.097  0.0000E+00  0.4000E+01
    -36.067  0.0000E+00  0.4000E+01
    -36.037  0.0000E+00  0.4000E+01
    -36.007  0.0000E+00  0.4000E+01
    -35.977  0.0000E+00  0.4000E+01
    -35.946  0.0000E+00  0.4000E+01
    -35.916  0.0000E+00  0.4000E+01
    -35.886  0.0000E+00  0.4000E+01
    -35.856  0.0000E+00  0.4000E+01
    -35.825  0.0000E+00  0.4000E+01
    -35.795  0.0000E+00  0.4000E+01
    -35.765  0.0000E+00  0.4000E+01
    -35.735  0.0000E+00  0.4000E+01
    -35.704  0.0000E+00  0.4000E+01
    -35.674  0.0000E+00  0.4000E+01
    -35.644  0.0000E+00  0.4000E+01
    -35.614  0.0000E+00  0.4000E+01
    -35.583  0.0000E+00  0.4000E+01
    -35.553  0.0000E+00  0.4000E+01
    -35.523  0.0000E+00  0.4000E+01
    -35.493  0.0000E+00  0.4000E+01
    -35.463  0.0000E+00  0.4000E+01
    -35.432  0.0000E+00  0.4000E+01
    -35.402  0.0000E+00  0.4000E+01
    -35.372  0.0000E+00  0.4000E+01
    -35.342  0.0000E+00  0.4000E+01
    -35.311  0.0000E+00  0.4000E+01
    -35.281  0.0000E+00  0.4000E+01
    -35.251  0.0000E+00  0.4000E+01
    -35.221  0.0000E+00  0.4000E+01
    -35.190  0.0000E+00  0.4000E+01
    -35.160  0.0000E+00  0.4000E+01
    -35.130  0.0000E+00  0.4000E+01
    -35.100  0.0000E+00  0.4000E+01
    -35.070  0.0000E+00  0.4000E+01
    -35.039  0.0000E+00  0.4000E+01
    -35.009  0.0000E+00  0.4000E+01
    -34.979  0.0000E+00  0.4000E+01
    -34.949  0.0000E+00  0.4000E+01