<?xml version="1.0" encoding="ISO-8859-1"?>
<modeling>
 <generator>
  <i name="program" type="string">vasp </i>
  <i name="version" type="string">5.4.4.18Apr17-6-g9f103f2a35  </i>
  <i name="subversion" type="string">(build Jan 06 2022 15:41:42) complex            parallel </i>
  <i name="platform" type="string">LinuxIFC </i>
  <i name="date" type="string">2022 02 14 </i>
  <i name="time" type="string">17:25:34 </i>
 </generator>
 <incar>
  <i type="string" name="SYSTEM"> MoTe2</i>
  <i type="string" name="PREC">accurate</i>
  <i type="int" name="IBRION">    -1</i>
  <i name="EDIFF">      0.00000001</i>
  <i type="int" name="NSW">     1</i>
  <i type="int" name="ISYM">     2</i>
  <i name="ENCUT">    400.00000000</i>
  <i type="int" name="NBANDS">    65</i>
  <i type="int" name="NEDOS">  3000</i>
  <i type="logical" name="LREAL"> F  </i>
  <i type="int" name="ISMEAR">     0</i>
  <i name="SIGMA">      0.05000000</i>
  <i type="logical" name="LWAVE"> T  </i>
  <i type="logical" name="LASPH"> T  </i>
  <v type="int" name="KPOINT_BSE">    -1     0     0     0</v>
  <i type="logical" name="LASPH"> T  </i>
  <i type="logical" name="LWANNIER90"> T  </i>
 </incar>
 <structure name="primitive_cell" >
  <crystal>
   <varray name="basis" >
    <v>       1.59650000      -2.76521911       0.00000000 </v>
    <v>       1.59650000       2.76521911       0.00000000 </v>
    <v>       0.00000000       0.00000000      13.98082349 </v>
   </varray>
   <i name="volume">    123.44150881 </i>
   <varray name="rec_basis" >
    <v>       0.31318509      -0.18081750       0.00000000 </v>
    <v>       0.31318509       0.18081750       0.00000000 </v>
    <v>       0.00000000       0.00000000       0.07152654 </v>
   </varray>
  </crystal>
  <varray name="positions" >
   <v>       0.33333333      -0.33333333       0.25000000 </v>
   <v>      -0.33333333       0.33333333       0.36184663 </v>
   <v>      -0.33333333       0.33333333       0.13815336 </v>
   <v>       0.33333333      -0.33333333      -0.13815333 </v>
   <v>       0.33333333      -0.33333333      -0.36184663 </v>
   <v>      -0.33333333       0.33333333      -0.25000000 </v>
  </varray>
 </structure>
 <varray name="primitive_index" >
  <v type="int" >        1 </v>
  <v type="int" >        4 </v>
  <v type="int" >        5 </v>
  <v type="int" >        6 </v>
  <v type="int" >        3 </v>
  <v type="int" >        2 </v>
 </varray>
 <kpoints>
  <generation param="Gamma">
   <v type="int" name="divisions">      12       12        1 </v>
   <v name="usershift">      0.00000000       0.00000000       0.00000000 </v>
   <v name="genvec1">      0.08333333       0.00000000       0.00000000 </v>
   <v name="genvec2">      0.00000000       0.08333333       0.00000000 </v>
   <v name="genvec3">      0.00000000       0.00000000       1.00000000 </v>
   <v name="shift">      0.00000000       0.00000000       0.00000000 </v>
  </generation>
  <varray name="kpointlist" >
   <v>       0.00000000       0.00000000       0.00000000 </v>
   <v>       0.08333333       0.00000000       0.00000000 </v>
   <v>       0.16666667       0.00000000       0.00000000 </v>
   <v>       0.25000000       0.00000000       0.00000000 </v>
   <v>       0.33333333       0.00000000       0.00000000 </v>
   <v>       0.41666667       0.00000000       0.00000000 </v>
   <v>       0.50000000       0.00000000       0.00000000 </v>
   <v>       0.08333333       0.08333333       0.00000000 </v>
   <v>       0.16666667       0.08333333       0.00000000 </v>
   <v>       0.25000000       0.08333333       0.00000000 </v>
   <v>       0.33333333       0.08333333       0.00000000 </v>
   <v>       0.41666667       0.08333333       0.00000000 </v>
   <v>       0.16666667       0.16666667       0.00000000 </v>
   <v>       0.25000000       0.16666667       0.00000000 </v>
   <v>       0.33333333       0.16666667       0.00000000 </v>
   <v>       0.41666667       0.16666667       0.00000000 </v>
   <v>       0.25000000       0.25000000       0.00000000 </v>
   <v>       0.33333333       0.25000000       0.00000000 </v>
   <v>       0.33333333       0.33333333       0.00000000 </v>
  </varray>
  <varray name="weights" >
   <v>       0.00694444 </v>
   <v>       0.04166667 </v>
   <v>       0.04166667 </v>
   <v>       0.04166667 </v>
   <v>       0.04166667 </v>
   <v>       0.04166667 </v>
   <v>       0.02083333 </v>
   <v>       0.04166667 </v>
   <v>       0.08333333 </v>
   <v>       0.08333333 </v>
   <v>       0.08333333 </v>
   <v>       0.08333333 </v>
   <v>       0.04166667 </v>
   <v>       0.08333333 </v>
   <v>       0.08333333 </v>
   <v>       0.04166667 </v>
   <v>       0.04166667 </v>
   <v>       0.08333333 </v>
   <v>       0.01388889 </v>
  </varray>
 </kpoints>
 <parameters>
  <separator name="general" >
   <i type="string" name="SYSTEM">MoTe2</i>
   <i type="logical" name="LCOMPAT"> F  </i>
  </separator>
  <separator name="electronic" >
   <i type="string" name="PREC">accura</i>
   <i name="ENMAX">    400.00000000</i>
   <i name="ENAUG">    964.74100000</i>
   <i name="EDIFF">      0.00000001</i>
   <i type="int" name="IALGO">    38</i>
   <i type="int" name="IWAVPR">    10</i>
   <i type="int" name="NBANDS">    65</i>
   <i name="NELECT">     52.00000000</i>
   <i type="int" name="TURBO">     0</i>
   <i type="int" name="IRESTART">     0</i>
   <i type="int" name="NREBOOT">     0</i>
   <i type="int" name="NMIN">     0</i>
   <i name="EREF">      0.00000000</i>
   <separator name="electronic smearing" >
    <i type="int" name="ISMEAR">     0</i>
    <i name="SIGMA">      0.05000000</i>
    <i name="KSPACING">      0.50000000</i>
    <i type="logical" name="KGAMMA"> T  </i>
   </separator>
   <separator name="electronic projectors" >
    <i type="logical" name="LREAL"> F  </i>
    <v name="ROPT">      0.00000000      0.00000000</v>
    <i type="int" name="LMAXPAW">  -100</i>
    <i type="int" name="LMAXMIX">     2</i>
    <i type="logical" name="NLSPLINE"> F  </i>
   </separator>
   <separator name="electronic startup" >
    <i type="int" name="ISTART">     0</i>
    <i type="int" name="ICHARG">     2</i>
    <i type="int" name="INIWAV">     1</i>
   </separator>
   <separator name="electronic spin" >
    <i type="int" name="ISPIN">     1</i>
    <i type="logical" name="LNONCOLLINEAR"> F  </i>
    <v name="MAGMOM">      1.00000000      1.00000000      1.00000000      1.00000000      1.00000000      1.00000000</v>
    <i name="NUPDOWN">     -1.00000000</i>
    <i type="logical" name="LSORBIT"> F  </i>
    <v name="SAXIS">      0.00000000      0.00000000      1.00000000</v>
    <i type="logical" name="LSPIRAL"> F  </i>
    <v name="QSPIRAL">      0.00000000      0.00000000      0.00000000</v>
    <i type="logical" name="LZEROZ"> F  </i>
   </separator>
   <separator name="electronic exchange-correlation" >
    <i type="logical" name="LASPH"> T  </i>
    <i type="logical" name="LMETAGGA"> F  </i>
   </separator>
   <separator name="electronic convergence" >
    <i type="int" name="NELM">    60</i>
    <i type="int" name="NELMDL">    -5</i>
    <i type="int" name="NELMIN">     2</i>
    <i name="ENINI">    400.00000000</i>
    <separator name="electronic convergence detail" >
     <i type="logical" name="LDIAG"> T  </i>
     <i type="logical" name="LSUBROT"> F  </i>
     <i name="WEIMIN">      0.00000000</i>
     <i name="EBREAK">      0.00000000</i>
     <i name="DEPER">      0.30000000</i>
     <i type="int" name="NRMM">     4</i>
     <i name="TIME">      0.40000000</i>
    </separator>
   </separator>
   <separator name="electronic mixer" >
    <i name="AMIX">      0.40000000</i>
    <i name="BMIX">      1.00000000</i>
    <i name="AMIN">      0.10000000</i>
    <i name="AMIX_MAG">      1.60000000</i>
    <i name="BMIX_MAG">      1.00000000</i>
    <separator name="electronic mixer details" >
     <i type="int" name="IMIX">     4</i>
     <i type="logical" name="MIXFIRST"> F  </i>
     <i type="int" name="MAXMIX">   -45</i>
     <i name="WC">    100.00000000</i>
     <i type="int" name="INIMIX">     1</i>
     <i type="int" name="MIXPRE">     1</i>
     <i type="int" name="MREMOVE">     5</i>
    </separator>
   </separator>
   <separator name="electronic dipolcorrection" >
    <i type="logical" name="LDIPOL"> F  </i>
    <i type="logical" name="LMONO"> F  </i>
    <i type="int" name="IDIPOL">     0</i>
    <i name="EPSILON">      1.00000000</i>
    <v name="DIPOL">   -100.00000000   -100.00000000   -100.00000000</v>
    <i name="EFIELD">      0.00000000</i>
   </separator>
  </separator>
  <separator name="grids" >
   <i type="int" name="NGX">    24</i>
   <i type="int" name="NGY">    24</i>
   <i type="int" name="NGZ">    96</i>
   <i type="int" name="NGXF">    48</i>
   <i type="int" name="NGYF">    48</i>
   <i type="int" name="NGZF">   192</i>
   <i type="logical" name="ADDGRID"> F  </i>
  </separator>
  <separator name="ionic" >
   <i type="int" name="NSW">     1</i>
   <i type="int" name="IBRION">    -1</i>
   <i type="int" name="MDALGO">     0</i>
   <i type="int" name="ISIF">     2</i>
   <i name="PSTRESS">      0.00000000</i>
   <i name="EDIFFG">      0.00000010</i>
   <i type="int" name="NFREE">     0</i>
   <i name="POTIM">      0.50000000</i>
   <i name="SMASS">     -3.00000000</i>
   <i name="SCALEE">      1.00000000</i>
  </separator>
  <separator name="ionic md" >
   <i name="TEBEG">      0.00010000</i>
   <i name="TEEND">      0.00010000</i>
   <i type="int" name="NBLOCK">     1</i>
   <i type="int" name="KBLOCK">     1</i>
   <i type="int" name="NPACO">   256</i>
   <i name="APACO">     16.00000000</i>
  </separator>
  <separator name="symmetry" >
   <i type="int" name="ISYM">     2</i>
   <i name="SYMPREC">      0.00001000</i>
  </separator>
  <separator name="dos" >
   <i type="int" name="LORBIT">     0</i>
   <v name="RWIGS">     -1.00000000     -1.00000000</v>
   <i type="int" name="NEDOS">  3000</i>
   <i name="EMIN">     10.00000000</i>
   <i name="EMAX">    -10.00000000</i>
   <i name="EFERMI">      0.00000000</i>
  </separator>
  <separator name="writing" >
   <i type="int" name="NWRITE">     2</i>
   <i type="logical" name="LWAVE"> T  </i>
   <i type="logical" name="LDOWNSAMPLE"> F  </i>
   <i type="logical" name="LCHARG"> T  </i>
   <i type="logical" name="LPARD"> F  </i>
   <i type="logical" name="LVTOT"> F  </i>
   <i type="logical" name="LVHAR"> F  </i>
   <i type="logical" name="LELF"> F  </i>
   <i type="logical" name="LOPTICS"> F  </i>
   <v name="STM">      0.00000000      0.00000000      0.00000000      0.00000000      0.00000000      0.00000000      0.00000000</v>
  </separator>
  <separator name="performance" >
   <i type="int" name="NPAR">     1</i>
   <i type="int" name="NSIM">     4</i>
   <i type="int" name="NBLK">    -1</i>
   <i type="logical" name="LPLANE"> T  </i>
   <i type="logical" name="LSCALAPACK"> T  </i>
   <i type="logical" name="LSCAAWARE"> F  </i>
   <i type="logical" name="LSCALU"> F  </i>
   <i type="logical" name="LASYNC"> F  </i>
   <i type="logical" name="LORBITALREAL"> F  </i>
  </separator>
  <separator name="miscellaneous" >
   <i type="int" name="IDIOT">     3</i>
   <i type="int" name="ISPECIAL">     0</i>
   <i type="logical" name="LMUSIC"> F  </i>
   <v name="POMASS">     95.94000000     32.06600000</v>
   <v name="DARWINR">      0.00000000      0.00000000</v>
   <v name="DARWINV">      1.00000000      1.00000000</v>
   <i type="logical" name="LCORR"> T  </i>
  </separator>
  <i type="logical" name="GGA_COMPAT"> T  </i>
  <i type="logical" name="LBERRY"> F  </i>
  <i type="int" name="ICORELEVEL">     0</i>
  <i type="logical" name="LDAU"> F  </i>
  <i type="int" name="I_CONSTRAINED_M">     0</i>
  <separator name="electronic exchange-correlation" >
   <i type="string" name="GGA">--</i>
   <i type="int" name="VOSKOWN">     0</i>
   <i type="logical" name="LHFCALC"> F  </i>
   <i type="string" name="PRECFOCK"></i>
   <i type="logical" name="LSYMGRAD"> F  </i>
   <i type="logical" name="LHFONE"> F  </i>
   <i type="logical" name="LRHFCALC"> F  </i>
   <i type="logical" name="LTHOMAS"> F  </i>
   <i type="logical" name="LMODELHF"> F  </i>
   <i name="ENCUT4O">     -1.00000000</i>
   <i type="int" name="EXXOEP">     0</i>
   <i type="int" name="FOURORBIT">     0</i>
   <i name="AEXX">      0.00000000</i>
   <i name="HFALPHA">      0.00000000</i>
   <i name="MCALPHA">      0.00000000</i>
   <i name="ALDAX">      1.00000000</i>
   <i name="AGGAX">      1.00000000</i>
   <i name="ALDAC">      1.00000000</i>
   <i name="AGGAC">      1.00000000</i>
   <i type="int" name="NKREDX">     1</i>
   <i type="int" name="NKREDY">     1</i>
   <i type="int" name="NKREDZ">     1</i>
   <i type="logical" name="SHIFTRED"> F  </i>
   <i type="logical" name="ODDONLY"> F  </i>
   <i type="logical" name="EVENONLY"> F  </i>
   <i type="int" name="LMAXFOCK">     0</i>
   <i type="int" name="NMAXFOCKAE">     0</i>
   <i type="logical" name="LFOCKAEDFT"> F  </i>
   <i name="HFSCREEN">      0.00000000</i>
   <i name="HFSCREENC">      0.00000000</i>
   <i type="int" name="NBANDSGWLOW">     0</i>
  </separator>
  <separator name="vdW DFT" >
   <i type="logical" name="LUSE_VDW"> F  </i>
   <i name="Zab_VDW">     -0.84910000</i>
   <i name="PARAM1">      0.12340000</i>
   <i name="PARAM2">      1.00000000</i>
   <i name="PARAM3">      0.00000000</i>
  </separator>
  <separator name="model GW" >
   <i type="int" name="MODEL_GW">     0</i>
   <i name="MODEL_EPS0">     12.34415088</i>
   <i name="MODEL_ALPHA">      1.00000000</i>
  </separator>
  <separator name="linear response parameters" >
   <i type="logical" name="LEPSILON"> F  </i>
   <i type="logical" name="LRPA"> F  </i>
   <i type="logical" name="LNABLA"> F  </i>
   <i type="logical" name="LVEL"> F  </i>
   <i type="int" name="KINTER">     0</i>
   <i name="CSHIFT">      0.10000000</i>
   <i name="OMEGAMAX">     -1.00000000</i>
   <i name="DEG_THRESHOLD">      0.00200000</i>
   <i name="RTIME">     -0.10000000</i>
   <i name="WPLASMAI">      0.00000000</i>
   <v name="DFIELD">      0.00000000      0.00000000      0.00000000</v>
   <v name="WPLASMA">      0.00000000      0.00000000      0.00000000      0.00000000      0.00000000      0.00000000      0.00000000      0.00000000      0.00000000</v>
  </separator>
  <separator name="orbital magnetization" >
   <i type="logical" name="NUCIND"> F  </i>
   <v name="MAGPOS">      0.00000000      0.00000000      0.00000000</v>
   <i type="logical" name="LNICSALL"> T  </i>
   <i type="logical" name="ORBITALMAG"> F  </i>
   <i type="logical" name="LMAGBLOCH"> F  </i>
   <i type="logical" name="LCHIMAG"> F  </i>
   <i type="logical" name="LGAUGE"> T  </i>
   <i type="int" name="MAGATOM">     0</i>
   <v name="MAGDIPOL">      0.00000000      0.00000000      0.00000000</v>
   <v name="AVECCONST">      0.00000000      0.00000000      0.00000000</v>
  </separator>
  <separator name="response functions" >
   <i type="logical" name="LADDER"> F  </i>
   <i type="logical" name="LRPAFORCE"> F  </i>
   <i type="logical" name="LFXC"> F  </i>
   <i type="logical" name="LHARTREE"> T  </i>
   <i type="int" name="IBSE">     0</i>
   <v type="int" name="KPOINT">    -1     0     0     0</v>
   <i type="logical" name="LTCTE"> F  </i>
   <i type="logical" name="LTETE"> F  </i>
   <i type="logical" name="LTRIPLET"> F  </i>
   <i type="logical" name="LFXCEPS"> F  </i>
   <i type="logical" name="LFXHEG"> F  </i>
   <i type="int" name="NATURALO">     2</i>
   <i type="logical" name="L2ORDER"> F  </i>
   <i type="logical" name="LMP2LT"> F  </i>
   <i type="logical" name="LUSEW"> F  </i>
   <i name="ENCUTGW">     -2.00000000</i>
   <i name="ENCUTGWSOFT">     -2.00000000</i>
   <i name="ENCUTLF">     -1.00000000</i>
   <i type="int" name="LMAXMP2">    -1</i>
   <i name="SCISSOR">      0.00000000</i>
   <i type="int" name="NOMEGA">     0</i>
   <i type="int" name="NOMEGAR">     0</i>
   <i type="int" name="NBANDSGW">    -1</i>
   <i type="int" name="NBANDSO">    -1</i>
   <i type="int" name="NBANDSV">    -1</i>
   <i type="int" name="NELM">     1</i>
   <i type="int" name="NELMHF">     1</i>
   <i type="int" name="DIM">     3</i>
   <i type="int" name="ANTIRES">     0</i>
   <i name="OMEGAMAX">    -30.00000000</i>
   <i name="OMEGAMIN">    -30.00000000</i>
   <i name="OMEGATL">   -200.00000000</i>
   <i type="int" name="OMEGAGRID">   140</i>
   <i name="CSHIFT">     -0.10000000</i>
   <i type="logical" name="SELFENERGY"> F  </i>
   <i type="logical" name="LSPECTRAL"> F  </i>
   <i type="logical" name="LSPECTRALGW"> F  </i>
   <i type="logical" name="LSINGLES"> F  </i>
   <i type="logical" name="LFERMIGW"> F  </i>
   <i type="logical" name="ODDONLYGW"> F  </i>
   <i type="logical" name="EVENONLYGW"> F  </i>
   <i type="int" name="NKREDLFX">     1</i>
   <i type="int" name="NKREDLFY">     1</i>
   <i type="int" name="NKREDLFZ">     1</i>
   <i type="int" name="MAXMEM">  2800</i>
   <i type="int" name="TELESCOPE">     0</i>
   <i type="int" name="TAUPAR">     1</i>
   <i type="int" name="OMEGAPAR">    -1</i>
   <i name="LAMBDA">      1.00000000</i>
  </separator>
  <separator name="External order field" >
   <i name="OFIELD_KAPPA">      0.00000000</i>
   <v name="OFIELD_K">      0.00000000      0.00000000      0.00000000</v>
   <i name="OFIELD_Q6_NEAR">      0.00000000</i>
   <i name="OFIELD_Q6_FAR">      0.00000000</i>
   <i name="OFIELD_A">      0.00000000</i>
  </separator>
 </parameters>
 <atominfo>
  <atoms>       6 </atoms>
  <types>       2 </types>
  <array name="atoms" >
   <dimension dim="1">ion</dimension>
   <field type="string">element</field>
   <field type="int">atomtype</field>
   <set>
    <rc><c>Mo</c><c>   1</c></rc>
    <rc><c>Mo</c><c>   1</c></rc>
    <rc><c>S </c><c>   2</c></rc>
    <rc><c>S </c><c>   2</c></rc>
    <rc><c>S </c><c>   2</c></rc>
    <rc><c>S </c><c>   2</c></rc>
   </set>
  </array>
  <array name="atomtypes" >
   <dimension dim="1">type</dimension>
   <field type="int">atomspertype</field>
   <field type="string">element</field>
   <field>mass</field>
   <field>valence</field>
   <field type="string">pseudopotential</field>
   <set>
    <rc><c>   2</c><c>Mo</c><c>     95.94000000</c><c>     14.00000000</c><c>  PAW_PBE Mo_sv_GW 05Dec2013            </c></rc>
    <rc><c>   4</c><c>S </c><c>     32.06600000</c><c>      6.00000000</c><c>  PAW_PBE S_GW 19Mar2012                </c></rc>
   </set>
  </array>
 </atominfo>
 <structure name="initialpos" >
  <crystal>
   <varray name="basis" >
    <v>       1.59650000      -2.76521911       0.00000000 </v>
    <v>       1.59650000       2.76521911       0.00000000 </v>
    <v>       0.00000000       0.00000000      13.98082349 </v>
   </varray>
   <i name="volume">    123.44150881 </i>
   <varray name="rec_basis" >
    <v>       0.31318509      -0.18081750       0.00000000 </v>
    <v>       0.31318509       0.18081750       0.00000000 </v>
    <v>       0.00000000       0.00000000       0.07152654 </v>
   </varray>
  </crystal>
  <varray name="positions" >
   <v>       0.33333333       0.66666667       0.25000000 </v>
   <v>       0.66666667       0.33333333       0.75000000 </v>
   <v>       0.33333333       0.66666667       0.63815337 </v>
   <v>       0.66666667       0.33333333       0.36184663 </v>
   <v>       0.66666667       0.33333333       0.13815336 </v>
   <v>       0.33333333       0.66666667       0.86184667 </v>
  </varray>
  <varray name="velocities" >
   <v>       0.00000000       0.00000000       0.00000000 </v>
   <v>       0.00000000       0.00000000       0.00000000 </v>
   <v>       0.00000000       0.00000000       0.00000000 </v>
   <v>       0.00000000       0.00000000       0.00000000 </v>
   <v>       0.00000000       0.00000000       0.00000000 </v>
   <v>       0.00000000       0.00000000       0.00000000 </v>
  </varray>
 </structure>
 <calculation>
  <scstep>
   <time name="dav">    0.59    0.59</time>
   <time name="total">    1.04    1.17</time>
   <energy>
    <i name="alphaZ">    154.91435470 </i>
    <i name="ewald">  -2596.17707136 </i>
    <i name="hartreedc">  -2125.01445362 </i>
    <i name="XCdc">    167.17740206 </i>
    <i name="pawpsdc">   3905.22371462 </i>
    <i name="pawaedc">  -3865.63498383 </i>
    <i name="eentropy">     -0.00405115 </i>
    <i name="bandstr">   -145.32685891 </i>
    <i name="atom">   4830.14373692 </i>
    <i name="e_fr_energy">    325.30178942 </i>
    <i name="e_wo_entrp">    325.30584057 </i>
    <i name="e_0_energy">    325.30381500 </i>
   </energy>
  </scstep>
  <scstep>
   <time name="dav">    0.69    0.70</time>
   <time name="total">    0.69    0.70</time>
   <energy>
    <i name="e_fr_energy">    -25.05104818 </i>
    <i name="e_wo_entrp">    -25.05104818 </i>
    <i name="e_0_energy">    -25.05104818 </i>
   </energy>
  </scstep>
  <scstep>
   <time name="dav">    0.72    0.73</time>
   <time name="total">    0.72    0.73</time>
   <energy>
    <i name="e_fr_energy">    -51.37059377 </i>
    <i name="e_wo_entrp">    -51.37059377 </i>
    <i name="e_0_energy">    -51.37059377 </i>
   </energy>
  </scstep>
  <scstep>
   <time name="dav">    0.74    0.75</time>
   <time name="total">    0.74    0.76</time>
   <energy>
    <i name="e_fr_energy">    -52.47745872 </i>
    <i name="e_wo_entrp">    -52.47745872 </i>
    <i name="e_0_energy">    -52.47745872 </i>
   </energy>
  </scstep>
  <scstep>
   <time name="dav">    0.76    0.78</time>
   <time name="total">    0.84    0.85</time>
   <energy>
    <i name="e_fr_energy">    -52.52139955 </i>
    <i name="e_wo_entrp">    -52.52139955 </i>
    <i name="e_0_energy">    -52.52139955 </i>
   </energy>
  </scstep>
  <scstep>
   <time name="dav">    0.74    0.74</time>
   <time name="total">    1.39    1.41</time>
   <energy>
    <i name="e_fr_energy">    -46.79399442 </i>
    <i name="e_wo_entrp">    -46.79399442 </i>
    <i name="e_0_energy">    -46.79399442 </i>
   </energy>
  </scstep>
  <scstep>
   <time name="dav">    0.73    0.73</time>
   <time name="total">    1.38    1.39</time>
   <energy>
    <i name="e_fr_energy">    -45.31031741 </i>
    <i name="e_wo_entrp">    -45.31031741 </i>
    <i name="e_0_energy">    -45.31031741 </i>
   </energy>
  </scstep>
  <scstep>
   <time name="dav">    0.72    0.72</time>
   <time name="total">    1.38    1.39</time>
   <energy>
    <i name="e_fr_energy">    -45.22672458 </i>
    <i name="e_wo_entrp">    -45.22672458 </i>
    <i name="e_0_energy">    -45.22672458 </i>
   </energy>
  </scstep>
  <scstep>
   <time name="dav">    0.74    0.74</time>
   <time name="total">    1.39    1.40</time>
   <energy>
    <i name="e_fr_energy">    -45.20646386 </i>
    <i name="e_wo_entrp">    -45.20646386 </i>
    <i name="e_0_energy">    -45.20646386 </i>
   </energy>
  </scstep>
  <scstep>
   <time name="dav">    0.66    0.66</time>
   <time name="total">    1.31    1.32</time>
   <energy>
    <i name="e_fr_energy">    -45.20487313 </i>
    <i name="e_wo_entrp">    -45.20487313 </i>
    <i name="e_0_energy">    -45.20487313 </i>
   </energy>
  </scstep>
  <scstep>
   <time name="dav">    0.72    0.72</time>
   <time name="total">    1.37    1.38</time>
   <energy>
    <i name="e_fr_energy">    -45.20466283 </i>
    <i name="e_wo_entrp">    -45.20466283 </i>
    <i name="e_0_energy">    -45.20466283 </i>
   </energy>
  </scstep>
  <scstep>
   <time name="dav">    0.67    0.67</time>
   <time name="total">    1.32    1.33</time>
   <energy>
    <i name="e_fr_energy">    -45.20466454 </i>
    <i name="e_wo_entrp">    -45.20466454 </i>
    <i name="e_0_energy">    -45.20466454 </i>
   </energy>
  </scstep>
  <scstep>
   <time name="dav">    0.64    0.64</time>
   <time name="total">    1.29    1.30</time>
   <energy>
    <i name="e_fr_energy">    -45.20466670 </i>
    <i name="e_wo_entrp">    -45.20466670 </i>
    <i name="e_0_energy">    -45.20466670 </i>
   </energy>
  </scstep>
  <scstep>
   <time name="dav">    0.70    0.71</time>
   <time name="total">    1.35    1.36</time>
   <energy>
    <i name="e_fr_energy">    -45.20466712 </i>
    <i name="e_wo_entrp">    -45.20466712 </i>
    <i name="e_0_energy">    -45.20466712 </i>
   </energy>
  </scstep>
  <scstep>
   <time name="dav">    0.61    0.61</time>
   <time name="total">    1.26    1.27</time>
   <energy>
    <i name="e_fr_energy">    -45.20466715 </i>
    <i name="e_wo_entrp">    -45.20466715 </i>
    <i name="e_0_energy">    -45.20466715 </i>
   </energy>
  </scstep>
  <scstep>
   <time name="dav">    0.71    0.71</time>
   <time name="total">    1.36    1.37</time>
   <energy>
    <i name="e_fr_energy">    -45.20466732 </i>
    <i name="e_wo_entrp">    -45.20466732 </i>
    <i name="e_0_energy">    -45.20466732 </i>
   </energy>
  </scstep>
  <scstep>
   <time name="dav">    0.57    0.57</time>
   <time name="total">    1.22    1.23</time>
   <energy>
    <i name="e_fr_energy">    -45.20466735 </i>
    <i name="e_wo_entrp">    -45.20466735 </i>
    <i name="e_0_energy">    -45.20466735 </i>
   </energy>
  </scstep>
  <scstep>
   <time name="dav">    0.49    0.49</time>
   <time name="total">    1.14    1.15</time>
   <energy>
    <i name="e_fr_energy">    -45.20466738 </i>
    <i name="e_wo_entrp">    -45.20466738 </i>
    <i name="e_0_energy">    -45.20466738 </i>
   </energy>
  </scstep>
  <scstep>
   <time name="dav">    0.42    0.42</time>
   <time name="total">    1.00    1.01</time>
   <energy>
    <i name="alphaZ">    154.91435470 </i>
    <i name="ewald">  -2596.17707136 </i>
    <i name="hartreedc">  -2061.34365277 </i>
    <i name="XCdc">    165.29782510 </i>
    <i name="pawpsdc">   3840.04504598 </i>
    <i name="pawaedc">  -3801.45411274 </i>
    <i name="eentropy">     -0.00000000 </i>
    <i name="bandstr">   -576.63079320 </i>
    <i name="atom">   4830.14373692 </i>
    <i name="e_fr_energy">    -45.20466738 </i>
    <i name="e_wo_entrp">    -45.20466738 </i>
    <i name="e_0_energy">    -45.20466738 </i>
   </energy>
  </scstep>
  <structure>
   <crystal>
    <varray name="basis" >
     <v>       1.59650000      -2.76521911       0.00000000 </v>
     <v>       1.59650000       2.76521911       0.00000000 </v>
     <v>       0.00000000       0.00000000      13.98082349 </v>
    </varray>
    <i name="volume">    123.44150881 </i>
    <varray name="rec_basis" >
     <v>       0.31318509      -0.18081750       0.00000000 </v>
     <v>       0.31318509       0.18081750       0.00000000 </v>
     <v>       0.00000000       0.00000000       0.07152654 </v>
    </varray>
   </crystal>
   <varray name="positions" >
    <v>       0.33333333       0.66666667       0.25000000 </v>
    <v>       0.66666667       0.33333333       0.75000000 </v>
    <v>       0.33333333       0.66666667       0.63815337 </v>
    <v>       0.66666667       0.33333333       0.36184663 </v>
    <v>       0.66666667       0.33333333       0.13815336 </v>
    <v>       0.33333333       0.66666667       0.86184667 </v>
   </varray>
  </structure>
  <varray name="forces" >
   <v>       0.00000000      -0.00000000      -0.00000000 </v>
   <v>       0.00000000       0.00000000      -0.00000000 </v>
   <v>       0.00000000       0.00000000       0.05180896 </v>
   <v>      -0.00000000      -0.00000000      -0.05180896 </v>
   <v>      -0.00000000      -0.00000000       0.05180896 </v>
   <v>      -0.00000000       0.00000000      -0.05180896 </v>
  </varray>
  <varray name="stress" >
   <v>      -6.79329542       0.00000000       0.00000000 </v>
   <v>       0.00000000      -6.79329542       0.00000000 </v>
   <v>       0.00000000       0.00000000      -2.72535959 </v>
  </varray>
  <energy>
   <i name="e_fr_energy">    -45.20466738 </i>
   <i name="e_wo_entrp">    -45.20466738 </i>
   <i name="e_0_energy">     -0.00000000 </i>
  </energy>
  <time name="totalsc">  350.04  351.58</time>
  <eigenvalues>
   <array>
    <dimension dim="1">band</dimension>
    <dimension dim="2">kpoint</dimension>
    <dimension dim="3">spin</dimension>
    <field>eigene</field>
    <field>occ</field>
    <set>
     <set comment="spin 1">
      <set comment="kpoint 1">
       <r>  -55.7693    1.0000 </r>
       <r>  -55.7693    1.0000 </r>
       <r>  -29.8962    1.0000 </r>
       <r>  -29.8960    1.0000 </r>
       <r>  -29.7008    1.0000 </r>
       <r>  -29.7008    1.0000 </r>
       <r>  -29.7007    1.0000 </r>
       <r>  -29.7007    1.0000 </r>
       <r>   -8.9454    1.0000 </r>
       <r>   -8.8972    1.0000 </r>
       <r>   -7.6734    1.0000 </r>
       <r>   -7.5885    1.0000 </r>
       <r>   -0.6017    1.0000 </r>
       <r>   -0.2845    1.0000 </r>
       <r>    2.5198    1.0000 </r>
       <r>    2.5198    1.0000 </r>
       <r>    2.5215    1.0000 </r>
       <r>    2.5215    1.0000 </r>
       <r>    2.9296    1.0000 </r>
       <r>    3.6123    1.0000 </r>
       <r>    3.6123    1.0000 </r>
       <r>    3.6184    1.0000 </r>
       <r>    3.6184    1.0000 </r>
       <r>    3.8708    1.0000 </r>
       <r>    4.8781    1.0000 </r>
       <r>    5.4485    1.0000 </r>
       <r>    7.8505    0.0000 </r>
       <r>    7.8505    0.0000 </r>
       <r>    7.8552    0.0000 </r>
       <r>    7.8552    0.0000 </r>
       <r>    8.0850    0.0000 </r>
       <r>    8.0850    0.0000 </r>
       <r>    8.1122    0.0000 </r>
       <r>    8.1122    0.0000 </r>
       <r>   11.0536    0.0000 </r>
       <r>   11.3195    0.0000 </r>
       <r>   12.6000    0.0000 </r>
       <r>   13.1100    0.0000 </r>
       <r>   14.0250    0.0000 </r>
       <r>   14.1449    0.0000 </r>
       <r>   15.7888    0.0000 </r>
       <r>   15.7888    0.0000 </r>
       <r>   15.8844    0.0000 </r>
       <r>   15.8844    0.0000 </r>
       <r>   17.0060    0.0000 </r>
       <r>   17.7409    0.0000 </r>
       <r>   17.7409    0.0000 </r>
       <r>   17.9500    0.0000 </r>
       <r>   17.9500    0.0000 </r>
       <r>   18.0408    0.0000 </r>
       <r>   19.1326    0.0000 </r>
       <r>   20.7865    0.0000 </r>
       <r>   20.9219    0.0000 </r>
       <r>   20.9219    0.0000 </r>
       <r>   21.0009    0.0000 </r>
       <r>   21.0009    0.0000 </r>
       <r>   21.1674    0.0000 </r>
       <r>   21.1674    0.0000 </r>
       <r>   21.3432    0.0000 </r>
       <r>   21.5143    0.0000 </r>
       <r>   21.5143    0.0000 </r>
       <r>   21.5271    0.0000 </r>
       <r>   22.5009    0.0000 </r>
       <r>   24.3137    0.0000 </r>
       <r>   24.4742    0.0000 </r>
      </set>
      <set comment="kpoint 2">
       <r>  -55.7670    1.0000 </r>
       <r>  -55.7669    1.0000 </r>
       <r>  -29.8914    1.0000 </r>
       <r>  -29.8912    1.0000 </r>
       <r>  -29.7254    1.0000 </r>
       <r>  -29.7254    1.0000 </r>
       <r>  -29.7064    1.0000 </r>
       <r>  -29.7063    1.0000 </r>
       <r>   -8.8447    1.0000 </r>
       <r>   -8.7969    1.0000 </r>
       <r>   -7.6305    1.0000 </r>
       <r>   -7.5484    1.0000 </r>
       <r>   -0.4856    1.0000 </r>
       <r>   -0.1699    1.0000 </r>
       <r>    2.2932    1.0000 </r>
       <r>    2.2962    1.0000 </r>
       <r>    2.6144    1.0000 </r>
       <r>    2.6246    1.0000 </r>
       <r>    2.6272    1.0000 </r>
       <r>    3.0714    1.0000 </r>
       <r>    3.4512    1.0000 </r>
       <r>    3.4581    1.0000 </r>
       <r>    3.7961    1.0000 </r>
       <r>    4.2311    1.0000 </r>
       <r>    4.8617    1.0000 </r>
       <r>    5.3374    1.0000 </r>
       <r>    7.7103    0.0000 </r>
       <r>    7.7445    0.0000 </r>
       <r>    7.7912    0.0000 </r>
       <r>    7.9015    0.0000 </r>
       <r>    7.9686    0.0000 </r>
       <r>    8.0008    0.0000 </r>
       <r>    8.0238    0.0000 </r>
       <r>    8.0359    0.0000 </r>
       <r>   11.5046    0.0000 </r>
       <r>   11.7940    0.0000 </r>
       <r>   12.7778    0.0000 </r>
       <r>   13.1881    0.0000 </r>
       <r>   14.4718    0.0000 </r>
       <r>   14.6155    0.0000 </r>
       <r>   15.4601    0.0000 </r>
       <r>   15.5424    0.0000 </r>
       <r>   16.1081    0.0000 </r>
       <r>   16.2038    0.0000 </r>
       <r>   16.9933    0.0000 </r>
       <r>   17.1982    0.0000 </r>
       <r>   17.2582    0.0000 </r>
       <r>   17.7592    0.0000 </r>
       <r>   18.0114    0.0000 </r>
       <r>   18.0196    0.0000 </r>
       <r>   18.8953    0.0000 </r>
       <r>   20.2057    0.0000 </r>
       <r>   20.3006    0.0000 </r>
       <r>   20.5910    0.0000 </r>
       <r>   21.0457    0.0000 </r>
       <r>   21.1112    0.0000 </r>
       <r>   21.2119    0.0000 </r>
       <r>   21.3087    0.0000 </r>
       <r>   21.3422    0.0000 </r>
       <r>   21.3785    0.0000 </r>
       <r>   22.3125    0.0000 </r>
       <r>   22.5070    0.0000 </r>
       <r>   22.9479    0.0000 </r>
       <r>   24.7130    0.0000 </r>
       <r>   25.2129    0.0000 </r>
      </set>
      <set comment="kpoint 3">
       <r>  -55.7604    1.0000 </r>
       <r>  -55.7604    1.0000 </r>
       <r>  -29.8783    1.0000 </r>
       <r>  -29.8781    1.0000 </r>
       <r>  -29.7920    1.0000 </r>
       <r>  -29.7920    1.0000 </r>
       <r>  -29.7216    1.0000 </r>
       <r>  -29.7216    1.0000 </r>
       <r>   -8.5583    1.0000 </r>
       <r>   -8.5118    1.0000 </r>
       <r>   -7.5087    1.0000 </r>
       <r>   -7.4347    1.0000 </r>
       <r>   -0.1891    1.0000 </r>
       <r>    0.1138    1.0000 </r>
       <r>    1.7682    1.0000 </r>
       <r>    1.7833    1.0000 </r>
       <r>    2.0681    1.0000 </r>
       <r>    2.3749    1.0000 </r>
       <r>    2.9168    1.0000 </r>
       <r>    2.9219    1.0000 </r>
       <r>    3.0713    1.0000 </r>
       <r>    3.0799    1.0000 </r>
       <r>    3.8585    1.0000 </r>
       <r>    4.2908    1.0000 </r>
       <r>    4.7278    1.0000 </r>
       <r>    4.9660    1.0000 </r>
       <r>    7.2651    0.0000 </r>
       <r>    7.6069    0.0000 </r>
       <r>    7.6242    0.0000 </r>
       <r>    7.7000    0.0000 </r>
       <r>    7.7386    0.0000 </r>
       <r>    7.7737    0.0000 </r>
       <r>    8.4229    0.0000 </r>
       <r>    8.4500    0.0000 </r>
       <r>   12.2512    0.0000 </r>
       <r>   12.8631    0.0000 </r>
       <r>   13.3398    0.0000 </r>
       <r>   13.4235    0.0000 </r>
       <r>   14.8135    0.0000 </r>
       <r>   15.0266    0.0000 </r>
       <r>   15.0921    0.0000 </r>
       <r>   15.1864    0.0000 </r>
       <r>   16.2624    0.0000 </r>
       <r>   16.6367    0.0000 </r>
       <r>   16.9618    0.0000 </r>
       <r>   17.0496    0.0000 </r>
       <r>   17.1032    0.0000 </r>
       <r>   17.5377    0.0000 </r>
       <r>   17.9129    0.0000 </r>
       <r>   18.2604    0.0000 </r>
       <r>   18.5776    0.0000 </r>
       <r>   19.0717    0.0000 </r>
       <r>   19.3610    0.0000 </r>
       <r>   19.6914    0.0000 </r>
       <r>   20.4019    0.0000 </r>
       <r>   20.7221    0.0000 </r>
       <r>   21.5325    0.0000 </r>
       <r>   21.5459    0.0000 </r>
       <r>   21.8019    0.0000 </r>
       <r>   21.8713    0.0000 </r>
       <r>   24.0404    0.0000 </r>
       <r>   24.1788    0.0000 </r>
       <r>   24.3554    0.0000 </r>
       <r>   24.9029    0.0000 </r>
       <r>   25.7390    0.0000 </r>
      </set>
      <set comment="kpoint 4">
       <r>  -55.7516    1.0000 </r>
       <r>  -55.7515    1.0000 </r>
       <r>  -29.8819    1.0000 </r>
       <r>  -29.8818    1.0000 </r>
       <r>  -29.8603    1.0000 </r>
       <r>  -29.8603    1.0000 </r>
       <r>  -29.7424    1.0000 </r>
       <r>  -29.7424    1.0000 </r>
       <r>   -8.1342    1.0000 </r>
       <r>   -8.0912    1.0000 </r>
       <r>   -7.3294    1.0000 </r>
       <r>   -7.2682    1.0000 </r>
       <r>    0.0585    1.0000 </r>
       <r>    0.2799    1.0000 </r>
       <r>    1.2907    1.0000 </r>
       <r>    1.3784    1.0000 </r>
       <r>    1.4815    1.0000 </r>
       <r>    1.6761    1.0000 </r>
       <r>    2.6450    1.0000 </r>
       <r>    2.6551    1.0000 </r>
       <r>    3.3262    1.0000 </r>
       <r>    3.3363    1.0000 </r>
       <r>    3.6492    1.0000 </r>
       <r>    3.9884    1.0000 </r>
       <r>    4.3824    1.0000 </r>
       <r>    4.4501    1.0000 </r>
       <r>    7.0820    0.0000 </r>
       <r>    7.4347    0.0000 </r>
       <r>    7.4729    0.0000 </r>
       <r>    7.5435    0.0000 </r>
       <r>    7.8610    0.0000 </r>
       <r>    8.1804    0.0000 </r>
       <r>    8.8346    0.0000 </r>
       <r>    8.8822    0.0000 </r>
       <r>   12.5216    0.0000 </r>
       <r>   13.2843    0.0000 </r>
       <r>   13.4105    0.0000 </r>
       <r>   14.0956    0.0000 </r>
       <r>   14.2154    0.0000 </r>
       <r>   14.4367    0.0000 </r>
       <r>   14.7780    0.0000 </r>
       <r>   14.8014    0.0000 </r>
       <r>   16.6799    0.0000 </r>
       <r>   16.8452    0.0000 </r>
       <r>   17.2039    0.0000 </r>
       <r>   17.4743    0.0000 </r>
       <r>   17.8112    0.0000 </r>
       <r>   17.9033    0.0000 </r>
       <r>   18.1547    0.0000 </r>
       <r>   18.3298    0.0000 </r>
       <r>   18.5842    0.0000 </r>
       <r>   18.8120    0.0000 </r>
       <r>   19.0748    0.0000 </r>
       <r>   19.1340    0.0000 </r>
       <r>   19.6336    0.0000 </r>
       <r>   19.9830    0.0000 </r>
       <r>   21.9933    0.0000 </r>
       <r>   22.1411    0.0000 </r>
       <r>   22.3735    0.0000 </r>
       <r>   22.5022    0.0000 </r>
       <r>   23.9924    0.0000 </r>
       <r>   24.0539    0.0000 </r>
       <r>   25.1536    0.0000 </r>
       <r>   25.2979    0.0000 </r>
       <r>   26.0935    0.0000 </r>
      </set>
      <set comment="kpoint 5">
       <r>  -55.7426    1.0000 </r>
       <r>  -55.7426    1.0000 </r>
       <r>  -29.9705    1.0000 </r>
       <r>  -29.9704    1.0000 </r>
       <r>  -29.8423    1.0000 </r>
       <r>  -29.8422    1.0000 </r>
       <r>  -29.7631    1.0000 </r>
       <r>  -29.7631    1.0000 </r>
       <r>   -7.6582    1.0000 </r>
       <r>   -7.6221    1.0000 </r>
       <r>   -7.1316    1.0000 </r>
       <r>   -7.0867    1.0000 </r>
       <r>   -0.1207    1.0000 </r>
       <r>   -0.0202    1.0000 </r>
       <r>    0.9242    1.0000 </r>
       <r>    1.0410    1.0000 </r>
       <r>    1.1584    1.0000 </r>
       <r>    1.3348    1.0000 </r>
       <r>    2.2860    1.0000 </r>
       <r>    2.2971    1.0000 </r>
       <r>    3.3996    1.0000 </r>
       <r>    3.6373    1.0000 </r>
       <r>    3.7354    1.0000 </r>
       <r>    3.7538    1.0000 </r>
       <r>    4.1297    1.0000 </r>
       <r>    4.2100    1.0000 </r>
       <r>    7.2747    0.0000 </r>
       <r>    7.2936    0.0000 </r>
       <r>    7.3227    0.0000 </r>
       <r>    7.6361    0.0000 </r>
       <r>    8.3043    0.0000 </r>
       <r>    8.6987    0.0000 </r>
       <r>    9.1320    0.0000 </r>
       <r>    9.2018    0.0000 </r>
       <r>   12.4525    0.0000 </r>
       <r>   12.7675    0.0000 </r>
       <r>   12.9440    0.0000 </r>
       <r>   13.1111    0.0000 </r>
       <r>   13.3980    0.0000 </r>
       <r>   14.2203    0.0000 </r>
       <r>   14.5223    0.0000 </r>
       <r>   15.3620    0.0000 </r>
       <r>   16.0667    0.0000 </r>
       <r>   16.7415    0.0000 </r>
       <r>   17.1164    0.0000 </r>
       <r>   17.5449    0.0000 </r>
       <r>   17.7382    0.0000 </r>
       <r>   17.7439    0.0000 </r>
       <r>   18.3239    0.0000 </r>
       <r>   18.9882    0.0000 </r>
       <r>   19.3925    0.0000 </r>
       <r>   19.6850    0.0000 </r>
       <r>   19.7563    0.0000 </r>
       <r>   20.1318    0.0000 </r>
       <r>   20.3710    0.0000 </r>
       <r>   20.4010    0.0000 </r>
       <r>   22.3600    0.0000 </r>
       <r>   22.3624    0.0000 </r>
       <r>   22.7367    0.0000 </r>
       <r>   22.8285    0.0000 </r>
       <r>   23.4856    0.0000 </r>
       <r>   23.5569    0.0000 </r>
       <r>   24.3381    0.0000 </r>
       <r>   25.1714    0.0000 </r>
       <r>   25.6638    0.0000 </r>
      </set>
      <set comment="kpoint 6">
       <r>  -55.7361    1.0000 </r>
       <r>  -55.7360    1.0000 </r>
       <r>  -30.0346    1.0000 </r>
       <r>  -30.0345    1.0000 </r>
       <r>  -29.8291    1.0000 </r>
       <r>  -29.8290    1.0000 </r>
       <r>  -29.7782    1.0000 </r>
       <r>  -29.7781    1.0000 </r>
       <r>   -7.2611    1.0000 </r>
       <r>   -7.2357    1.0000 </r>
       <r>   -6.9707    1.0000 </r>
       <r>   -6.9433    1.0000 </r>
       <r>   -0.4714    1.0000 </r>
       <r>   -0.4030    1.0000 </r>
       <r>    0.5107    1.0000 </r>
       <r>    0.5817    1.0000 </r>
       <r>    1.0729    1.0000 </r>
       <r>    1.2463    1.0000 </r>
       <r>    2.0529    1.0000 </r>
       <r>    2.0646    1.0000 </r>
       <r>    3.2643    1.0000 </r>
       <r>    3.3942    1.0000 </r>
       <r>    4.0188    1.0000 </r>
       <r>    4.0467    1.0000 </r>
       <r>    4.2922    1.0000 </r>
       <r>    4.3749    1.0000 </r>
       <r>    7.2944    0.0000 </r>
       <r>    7.3102    0.0000 </r>
       <r>    7.6048    0.0000 </r>
       <r>    7.7928    0.0000 </r>
       <r>    8.6516    0.0000 </r>
       <r>    9.0550    0.0000 </r>
       <r>    9.2928    0.0000 </r>
       <r>    9.3796    0.0000 </r>
       <r>   11.5815    0.0000 </r>
       <r>   11.7934    0.0000 </r>
       <r>   12.8298    0.0000 </r>
       <r>   13.0072    0.0000 </r>
       <r>   13.0126    0.0000 </r>
       <r>   14.0809    0.0000 </r>
       <r>   14.1035    0.0000 </r>
       <r>   14.9528    0.0000 </r>
       <r>   15.4835    0.0000 </r>
       <r>   16.3232    0.0000 </r>
       <r>   16.3976    0.0000 </r>
       <r>   16.7657    0.0000 </r>
       <r>   17.7629    0.0000 </r>
       <r>   18.0107    0.0000 </r>
       <r>   19.0878    0.0000 </r>
       <r>   19.6353    0.0000 </r>
       <r>   20.1529    0.0000 </r>
       <r>   20.6846    0.0000 </r>
       <r>   20.7424    0.0000 </r>
       <r>   21.4145    0.0000 </r>
       <r>   21.6586    0.0000 </r>
       <r>   22.0179    0.0000 </r>
       <r>   22.6218    0.0000 </r>
       <r>   22.6613    0.0000 </r>
       <r>   22.6641    0.0000 </r>
       <r>   22.9833    0.0000 </r>
       <r>   23.6840    0.0000 </r>
       <r>   23.6892    0.0000 </r>
       <r>   24.1691    0.0000 </r>
       <r>   24.6252    0.0000 </r>
       <r>   25.3474    0.0000 </r>
      </set>
      <set comment="kpoint 7">
       <r>  -55.7336    1.0000 </r>
       <r>  -55.7336    1.0000 </r>
       <r>  -30.0579    1.0000 </r>
       <r>  -30.0579    1.0000 </r>
       <r>  -29.8242    1.0000 </r>
       <r>  -29.8242    1.0000 </r>
       <r>  -29.7837    1.0000 </r>
       <r>  -29.7836    1.0000 </r>
       <r>   -7.1008    1.0000 </r>
       <r>   -7.0830    1.0000 </r>
       <r>   -6.9063    1.0000 </r>
       <r>   -6.8895    1.0000 </r>
       <r>   -0.6257    1.0000 </r>
       <r>   -0.5612    1.0000 </r>
       <r>    0.3574    1.0000 </r>
       <r>    0.4121    1.0000 </r>
       <r>    1.0061    1.0000 </r>
       <r>    1.1726    1.0000 </r>
       <r>    1.9726    1.0000 </r>
       <r>    1.9845    1.0000 </r>
       <r>    3.2457    1.0000 </r>
       <r>    3.2917    1.0000 </r>
       <r>    4.1152    1.0000 </r>
       <r>    4.1475    1.0000 </r>
       <r>    4.4873    1.0000 </r>
       <r>    4.5045    1.0000 </r>
       <r>    7.3244    0.0000 </r>
       <r>    7.3335    0.0000 </r>
       <r>    7.7900    0.0000 </r>
       <r>    7.8824    0.0000 </r>
       <r>    8.7689    0.0000 </r>
       <r>    9.1656    0.0000 </r>
       <r>    9.3415    0.0000 </r>
       <r>    9.4345    0.0000 </r>
       <r>   11.1387    0.0000 </r>
       <r>   11.2426    0.0000 </r>
       <r>   12.8144    0.0000 </r>
       <r>   13.1375    0.0000 </r>
       <r>   13.2532    0.0000 </r>
       <r>   13.6545    0.0000 </r>
       <r>   13.9659    0.0000 </r>
       <r>   14.6100    0.0000 </r>
       <r>   15.3070    0.0000 </r>
       <r>   16.0100    0.0000 </r>
       <r>   16.2142    0.0000 </r>
       <r>   16.4463    0.0000 </r>
       <r>   17.7811    0.0000 </r>
       <r>   18.1968    0.0000 </r>
       <r>   19.0980    0.0000 </r>
       <r>   19.9079    0.0000 </r>
       <r>   20.3697    0.0000 </r>
       <r>   21.2290    0.0000 </r>
       <r>   21.5931    0.0000 </r>
       <r>   21.9707    0.0000 </r>
       <r>   22.2574    0.0000 </r>
       <r>   22.6116    0.0000 </r>
       <r>   22.7987    0.0000 </r>
       <r>   22.9287    0.0000 </r>
       <r>   22.9373    0.0000 </r>
       <r>   23.1870    0.0000 </r>
       <r>   23.2473    0.0000 </r>
       <r>   24.5425    0.0000 </r>
       <r>   24.5649    0.0000 </r>
       <r>   24.9957    0.0000 </r>
       <r>   25.0919    0.0000 </r>
      </set>
      <set comment="kpoint 8">
       <r>  -55.7625    1.0000 </r>
       <r>  -55.7625    1.0000 </r>
       <r>  -29.8824    1.0000 </r>
       <r>  -29.8823    1.0000 </r>
       <r>  -29.7697    1.0000 </r>
       <r>  -29.7697    1.0000 </r>
       <r>  -29.7181    1.0000 </r>
       <r>  -29.7180    1.0000 </r>
       <r>   -8.6511    1.0000 </r>
       <r>   -8.6041    1.0000 </r>
       <r>   -7.5480    1.0000 </r>
       <r>   -7.4714    1.0000 </r>
       <r>   -0.2763    1.0000 </r>
       <r>    0.0335    1.0000 </r>
       <r>    1.9292    1.0000 </r>
       <r>    1.9294    1.0000 </r>
       <r>    2.2520    1.0000 </r>
       <r>    2.6148    1.0000 </r>
       <r>    2.8155    1.0000 </r>
       <r>    2.8187    1.0000 </r>
       <r>    3.0741    1.0000 </r>
       <r>    3.0905    1.0000 </r>
       <r>    3.9675    1.0000 </r>
       <r>    4.3918    1.0000 </r>
       <r>    4.7871    1.0000 </r>
       <r>    5.0943    1.0000 </r>
       <r>    7.3868    0.0000 </r>
       <r>    7.5432    0.0000 </r>
       <r>    7.6505    0.0000 </r>
       <r>    7.6757    0.0000 </r>
       <r>    7.7650    0.0000 </r>
       <r>    7.8136    0.0000 </r>
       <r>    8.3482    0.0000 </r>
       <r>    8.3815    0.0000 </r>
       <r>   12.1325    0.0000 </r>
       <r>   12.5899    0.0000 </r>
       <r>   13.1649    0.0000 </r>
       <r>   13.3129    0.0000 </r>
       <r>   15.0803    0.0000 </r>
       <r>   15.0992    0.0000 </r>
       <r>   15.1250    0.0000 </r>
       <r>   15.2983    0.0000 </r>
       <r>   16.2562    0.0000 </r>
       <r>   16.4949    0.0000 </r>
       <r>   16.5092    0.0000 </r>
       <r>   16.6706    0.0000 </r>
       <r>   17.2388    0.0000 </r>
       <r>   17.7396    0.0000 </r>
       <r>   17.9801    0.0000 </r>
       <r>   17.9948    0.0000 </r>
       <r>   18.5385    0.0000 </r>
       <r>   19.6160    0.0000 </r>
       <r>   19.8577    0.0000 </r>
       <r>   19.9094    0.0000 </r>
       <r>   20.3764    0.0000 </r>
       <r>   21.0846    0.0000 </r>
       <r>   21.2001    0.0000 </r>
       <r>   21.4233    0.0000 </r>
       <r>   21.6259    0.0000 </r>
       <r>   21.7658    0.0000 </r>
       <r>   23.7059    0.0000 </r>
       <r>   23.7134    0.0000 </r>
       <r>   23.9082    0.0000 </r>
       <r>   25.0779    0.0000 </r>
       <r>   25.4057    0.0000 </r>
      </set>
      <set comment="kpoint 9">
       <r>  -55.7548    1.0000 </r>
       <r>  -55.7547    1.0000 </r>
       <r>  -29.8669    1.0000 </r>
       <r>  -29.8668    1.0000 </r>
       <r>  -29.8448    1.0000 </r>
       <r>  -29.8447    1.0000 </r>
       <r>  -29.7393    1.0000 </r>
       <r>  -29.7392    1.0000 </r>
       <r>   -8.2949    1.0000 </r>
       <r>   -8.2503    1.0000 </r>
       <r>   -7.3965    1.0000 </r>
       <r>   -7.3303    1.0000 </r>
       <r>    0.0225    1.0000 </r>
       <r>    0.2934    1.0000 </r>
       <r>    1.4477    1.0000 </r>
       <r>    1.4803    1.0000 </r>
       <r>    1.7809    1.0000 </r>
       <r>    2.0200    1.0000 </r>
       <r>    2.5276    1.0000 </r>
       <r>    2.5756    1.0000 </r>
       <r>    3.1197    1.0000 </r>
       <r>    3.1259    1.0000 </r>
       <r>    3.9722    1.0000 </r>
       <r>    4.2938    1.0000 </r>
       <r>    4.5388    1.0000 </r>
       <r>    4.6396    1.0000 </r>
       <r>    7.0351    0.0000 </r>
       <r>    7.4006    0.0000 </r>
       <r>    7.5276    0.0000 </r>
       <r>    7.5688    0.0000 </r>
       <r>    7.6710    0.0000 </r>
       <r>    7.7939    0.0000 </r>
       <r>    8.7895    0.0000 </r>
       <r>    8.8740    0.0000 </r>
       <r>   12.6357    0.0000 </r>
       <r>   13.4289    0.0000 </r>
       <r>   13.6312    0.0000 </r>
       <r>   14.0757    0.0000 </r>
       <r>   14.5913    0.0000 </r>
       <r>   14.6850    0.0000 </r>
       <r>   14.8518    0.0000 </r>
       <r>   15.1197    0.0000 </r>
       <r>   16.5141    0.0000 </r>
       <r>   16.5331    0.0000 </r>
       <r>   16.7160    0.0000 </r>
       <r>   16.9367    0.0000 </r>
       <r>   17.4730    0.0000 </r>
       <r>   17.7361    0.0000 </r>
       <r>   17.8245    0.0000 </r>
       <r>   17.9214    0.0000 </r>
       <r>   18.4506    0.0000 </r>
       <r>   18.6498    0.0000 </r>
       <r>   19.4778    0.0000 </r>
       <r>   19.6880    0.0000 </r>
       <r>   19.7331    0.0000 </r>
       <r>   20.6923    0.0000 </r>
       <r>   21.4854    0.0000 </r>
       <r>   21.7392    0.0000 </r>
       <r>   22.3463    0.0000 </r>
       <r>   22.5441    0.0000 </r>
       <r>   24.5113    0.0000 </r>
       <r>   24.8161    0.0000 </r>
       <r>   24.8759    0.0000 </r>
       <r>   25.5152    0.0000 </r>
       <r>   25.6931    0.0000 </r>
      </set>
      <set comment="kpoint 10">
       <r>  -55.7459    1.0000 </r>
       <r>  -55.7458    1.0000 </r>
       <r>  -29.9301    1.0000 </r>
       <r>  -29.9301    1.0000 </r>
       <r>  -29.8489    1.0000 </r>
       <r>  -29.8489    1.0000 </r>
       <r>  -29.7638    1.0000 </r>
       <r>  -29.7638    1.0000 </r>
       <r>   -7.8414    1.0000 </r>
       <r>   -7.8020    1.0000 </r>
       <r>   -7.2051    1.0000 </r>
       <r>   -7.1532    1.0000 </r>
       <r>    0.0608    1.0000 </r>
       <r>    0.2039    1.0000 </r>
       <r>    1.2031    1.0000 </r>
       <r>    1.2196    1.0000 </r>
       <r>    1.3219    1.0000 </r>
       <r>    1.3594    1.0000 </r>
       <r>    2.1548    1.0000 </r>
       <r>    2.2376    1.0000 </r>
       <r>    3.3679    1.0000 </r>
       <r>    3.3757    1.0000 </r>
       <r>    3.7332    1.0000 </r>
       <r>    3.9403    1.0000 </r>
       <r>    4.2674    1.0000 </r>
       <r>    4.3042    1.0000 </r>
       <r>    6.9897    0.0000 </r>
       <r>    7.2833    0.0000 </r>
       <r>    7.4528    0.0000 </r>
       <r>    7.6525    0.0000 </r>
       <r>    7.9185    0.0000 </r>
       <r>    8.2291    0.0000 </r>
       <r>    9.1246    0.0000 </r>
       <r>    9.2683    0.0000 </r>
       <r>   12.7652    0.0000 </r>
       <r>   13.2800    0.0000 </r>
       <r>   13.3420    0.0000 </r>
       <r>   13.7278    0.0000 </r>
       <r>   14.0171    0.0000 </r>
       <r>   14.5257    0.0000 </r>
       <r>   14.6908    0.0000 </r>
       <r>   15.2424    0.0000 </r>
       <r>   16.4319    0.0000 </r>
       <r>   16.6741    0.0000 </r>
       <r>   16.9723    0.0000 </r>
       <r>   17.1386    0.0000 </r>
       <r>   17.3923    0.0000 </r>
       <r>   17.6911    0.0000 </r>
       <r>   17.8430    0.0000 </r>
       <r>   18.0891    0.0000 </r>
       <r>   18.3056    0.0000 </r>
       <r>   19.3111    0.0000 </r>
       <r>   19.8034    0.0000 </r>
       <r>   20.0609    0.0000 </r>
       <r>   20.1436    0.0000 </r>
       <r>   20.5219    0.0000 </r>
       <r>   21.7353    0.0000 </r>
       <r>   22.2836    0.0000 </r>
       <r>   22.7955    0.0000 </r>
       <r>   23.4780    0.0000 </r>
       <r>   23.6364    0.0000 </r>
       <r>   23.9329    0.0000 </r>
       <r>   24.9523    0.0000 </r>
       <r>   24.9573    0.0000 </r>
       <r>   25.7441    0.0000 </r>
      </set>
      <set comment="kpoint 11">
       <r>  -55.7382    1.0000 </r>
       <r>  -55.7381    1.0000 </r>
       <r>  -30.0031    1.0000 </r>
       <r>  -30.0031    1.0000 </r>
       <r>  -29.8333    1.0000 </r>
       <r>  -29.8333    1.0000 </r>
       <r>  -29.7850    1.0000 </r>
       <r>  -29.7850    1.0000 </r>
       <r>   -7.3970    1.0000 </r>
       <r>   -7.3667    1.0000 </r>
       <r>   -7.0205    1.0000 </r>
       <r>   -6.9856    1.0000 </r>
       <r>   -0.2404    1.0000 </r>
       <r>   -0.1640    1.0000 </r>
       <r>    0.6549    1.0000 </r>
       <r>    0.7155    1.0000 </r>
       <r>    1.1768    1.0000 </r>
       <r>    1.3466    1.0000 </r>
       <r>    1.9966    1.0000 </r>
       <r>    2.0639    1.0000 </r>
       <r>    3.4483    1.0000 </r>
       <r>    3.4854    1.0000 </r>
       <r>    3.5105    1.0000 </r>
       <r>    3.5737    1.0000 </r>
       <r>    4.3606    1.0000 </r>
       <r>    4.3978    1.0000 </r>
       <r>    7.1768    0.0000 </r>
       <r>    7.3444    0.0000 </r>
       <r>    7.5688    0.0000 </r>
       <r>    7.7123    0.0000 </r>
       <r>    8.3830    0.0000 </r>
       <r>    8.7061    0.0000 </r>
       <r>    9.2422    0.0000 </r>
       <r>    9.4452    0.0000 </r>
       <r>   12.2069    0.0000 </r>
       <r>   12.3805    0.0000 </r>
       <r>   13.0981    0.0000 </r>
       <r>   13.1968    0.0000 </r>
       <r>   13.5121    0.0000 </r>
       <r>   14.3897    0.0000 </r>
       <r>   14.4852    0.0000 </r>
       <r>   15.2997    0.0000 </r>
       <r>   15.7051    0.0000 </r>
       <r>   16.0367    0.0000 </r>
       <r>   16.4015    0.0000 </r>
       <r>   16.7352    0.0000 </r>
       <r>   17.8659    0.0000 </r>
       <r>   18.3020    0.0000 </r>
       <r>   18.5721    0.0000 </r>
       <r>   18.6888    0.0000 </r>
       <r>   19.2120    0.0000 </r>
       <r>   19.8377    0.0000 </r>
       <r>   20.3333    0.0000 </r>
       <r>   20.9062    0.0000 </r>
       <r>   21.1014    0.0000 </r>
       <r>   21.4744    0.0000 </r>
       <r>   21.7212    0.0000 </r>
       <r>   22.4844    0.0000 </r>
       <r>   23.1907    0.0000 </r>
       <r>   23.5969    0.0000 </r>
       <r>   23.8137    0.0000 </r>
       <r>   24.2618    0.0000 </r>
       <r>   24.3487    0.0000 </r>
       <r>   24.5435    0.0000 </r>
       <r>   26.0503    0.0000 </r>
      </set>
      <set comment="kpoint 12">
       <r>  -55.7336    1.0000 </r>
       <r>  -55.7336    1.0000 </r>
       <r>  -30.0449    1.0000 </r>
       <r>  -30.0449    1.0000 </r>
       <r>  -29.8243    1.0000 </r>
       <r>  -29.8242    1.0000 </r>
       <r>  -29.7972    1.0000 </r>
       <r>  -29.7972    1.0000 </r>
       <r>   -7.1083    1.0000 </r>
       <r>   -7.0891    1.0000 </r>
       <r>   -6.9024    1.0000 </r>
       <r>   -6.8831    1.0000 </r>
       <r>   -0.4888    1.0000 </r>
       <r>   -0.4249    1.0000 </r>
       <r>    0.3313    1.0000 </r>
       <r>    0.3663    1.0000 </r>
       <r>    1.0643    1.0000 </r>
       <r>    1.2266    1.0000 </r>
       <r>    1.9547    1.0000 </r>
       <r>    1.9942    1.0000 </r>
       <r>    3.2730    1.0000 </r>
       <r>    3.3498    1.0000 </r>
       <r>    3.6064    1.0000 </r>
       <r>    3.6400    1.0000 </r>
       <r>    4.5968    1.0000 </r>
       <r>    4.6348    1.0000 </r>
       <r>    7.3171    0.0000 </r>
       <r>    7.3659    0.0000 </r>
       <r>    7.7766    0.0000 </r>
       <r>    7.8960    0.0000 </r>
       <r>    8.7816    0.0000 </r>
       <r>    9.0403    0.0000 </r>
       <r>    9.1656    0.0000 </r>
       <r>    9.3822    0.0000 </r>
       <r>   11.3972    0.0000 </r>
       <r>   11.5013    0.0000 </r>
       <r>   13.2990    0.0000 </r>
       <r>   13.4008    0.0000 </r>
       <r>   13.5158    0.0000 </r>
       <r>   13.9807    0.0000 </r>
       <r>   14.2186    0.0000 </r>
       <r>   14.8161    0.0000 </r>
       <r>   15.2980    0.0000 </r>
       <r>   15.6635    0.0000 </r>
       <r>   15.8126    0.0000 </r>
       <r>   16.4677    0.0000 </r>
       <r>   17.9058    0.0000 </r>
       <r>   18.6073    0.0000 </r>
       <r>   18.9679    0.0000 </r>
       <r>   19.0437    0.0000 </r>
       <r>   20.0880    0.0000 </r>
       <r>   20.9189    0.0000 </r>
       <r>   21.0925    0.0000 </r>
       <r>   21.2971    0.0000 </r>
       <r>   21.6731    0.0000 </r>
       <r>   21.8756    0.0000 </r>
       <r>   22.1760    0.0000 </r>
       <r>   23.2369    0.0000 </r>
       <r>   23.2503    0.0000 </r>
       <r>   23.9246    0.0000 </r>
       <r>   23.9272    0.0000 </r>
       <r>   24.0625    0.0000 </r>
       <r>   24.3818    0.0000 </r>
       <r>   25.2600    0.0000 </r>
       <r>   25.6215    0.0000 </r>
      </set>
      <set comment="kpoint 13">
       <r>  -55.7470    1.0000 </r>
       <r>  -55.7470    1.0000 </r>
       <r>  -29.9095    1.0000 </r>
       <r>  -29.9094    1.0000 </r>
       <r>  -29.8513    1.0000 </r>
       <r>  -29.8513    1.0000 </r>
       <r>  -29.7700    1.0000 </r>
       <r>  -29.7699    1.0000 </r>
       <r>   -7.9068    1.0000 </r>
       <r>   -7.8663    1.0000 </r>
       <r>   -7.2305    1.0000 </r>
       <r>   -7.1762    1.0000 </r>
       <r>    0.1476    1.0000 </r>
       <r>    0.3198    1.0000 </r>
       <r>    1.2792    1.0000 </r>
       <r>    1.3715    1.0000 </r>
       <r>    1.4305    1.0000 </r>
       <r>    1.5211    1.0000 </r>
       <r>    1.8815    1.0000 </r>
       <r>    2.0633    1.0000 </r>
       <r>    3.1570    1.0000 </r>
       <r>    3.1603    1.0000 </r>
       <r>    4.0008    1.0000 </r>
       <r>    4.1737    1.0000 </r>
       <r>    4.3379    1.0000 </r>
       <r>    4.3503    1.0000 </r>
       <r>    6.8631    0.0000 </r>
       <r>    7.2216    0.0000 </r>
       <r>    7.5054    0.0000 </r>
       <r>    7.6426    0.0000 </r>
       <r>    7.6973    0.0000 </r>
       <r>    7.9233    0.0000 </r>
       <r>    9.1723    0.0000 </r>
       <r>    9.3527    0.0000 </r>
       <r>   12.9999    0.0000 </r>
       <r>   13.5516    0.0000 </r>
       <r>   13.8950    0.0000 </r>
       <r>   14.0195    0.0000 </r>
       <r>   14.5218    0.0000 </r>
       <r>   14.9001    0.0000 </r>
       <r>   14.9920    0.0000 </r>
       <r>   15.0620    0.0000 </r>
       <r>   16.1563    0.0000 </r>
       <r>   16.4648    0.0000 </r>
       <r>   16.5212    0.0000 </r>
       <r>   16.8117    0.0000 </r>
       <r>   17.2016    0.0000 </r>
       <r>   17.3943    0.0000 </r>
       <r>   17.3986    0.0000 </r>
       <r>   17.6149    0.0000 </r>
       <r>   17.7608    0.0000 </r>
       <r>   19.4500    0.0000 </r>
       <r>   19.9885    0.0000 </r>
       <r>   20.1589    0.0000 </r>
       <r>   20.1704    0.0000 </r>
       <r>   20.7484    0.0000 </r>
       <r>   21.2916    0.0000 </r>
       <r>   22.2703    0.0000 </r>
       <r>   23.5035    0.0000 </r>
       <r>   23.5765    0.0000 </r>
       <r>   23.6485    0.0000 </r>
       <r>   24.7867    0.0000 </r>
       <r>   24.8163    0.0000 </r>
       <r>   24.8999    0.0000 </r>
       <r>   25.5676    0.0000 </r>
      </set>
      <set comment="kpoint 14">
       <r>  -55.7394    1.0000 </r>
       <r>  -55.7393    1.0000 </r>
       <r>  -29.9703    1.0000 </r>
       <r>  -29.9703    1.0000 </r>
       <r>  -29.8357    1.0000 </r>
       <r>  -29.8357    1.0000 </r>
       <r>  -29.8039    1.0000 </r>
       <r>  -29.8039    1.0000 </r>
       <r>   -7.4760    1.0000 </r>
       <r>   -7.4431    1.0000 </r>
       <r>   -7.0458    1.0000 </r>
       <r>   -7.0064    1.0000 </r>
       <r>    0.0081    1.0000 </r>
       <r>    0.0962    1.0000 </r>
       <r>    0.7845    1.0000 </r>
       <r>    0.8150    1.0000 </r>
       <r>    1.3525    1.0000 </r>
       <r>    1.4805    1.0000 </r>
       <r>    1.7712    1.0000 </r>
       <r>    1.9588    1.0000 </r>
       <r>    2.8911    1.0000 </r>
       <r>    2.9142    1.0000 </r>
       <r>    3.7584    1.0000 </r>
       <r>    3.8193    1.0000 </r>
       <r>    4.3771    1.0000 </r>
       <r>    4.3813    1.0000 </r>
       <r>    7.0023    0.0000 </r>
       <r>    7.3862    0.0000 </r>
       <r>    7.6206    0.0000 </r>
       <r>    7.6765    0.0000 </r>
       <r>    7.9527    0.0000 </r>
       <r>    8.2540    0.0000 </r>
       <r>    9.3578    0.0000 </r>
       <r>    9.6217    0.0000 </r>
       <r>   12.9142    0.0000 </r>
       <r>   13.0261    0.0000 </r>
       <r>   13.5170    0.0000 </r>
       <r>   13.5787    0.0000 </r>
       <r>   14.2869    0.0000 </r>
       <r>   14.7468    0.0000 </r>
       <r>   14.9504    0.0000 </r>
       <r>   15.3425    0.0000 </r>
       <r>   15.7315    0.0000 </r>
       <r>   16.2301    0.0000 </r>
       <r>   16.3513    0.0000 </r>
       <r>   16.9486    0.0000 </r>
       <r>   17.1511    0.0000 </r>
       <r>   17.4872    0.0000 </r>
       <r>   17.7617    0.0000 </r>
       <r>   18.0072    0.0000 </r>
       <r>   18.0650    0.0000 </r>
       <r>   19.3771    0.0000 </r>
       <r>   19.8586    0.0000 </r>
       <r>   20.4194    0.0000 </r>
       <r>   21.0044    0.0000 </r>
       <r>   21.3619    0.0000 </r>
       <r>   21.4804    0.0000 </r>
       <r>   22.8046    0.0000 </r>
       <r>   23.5497    0.0000 </r>
       <r>   24.0017    0.0000 </r>
       <r>   24.2006    0.0000 </r>
       <r>   24.8563    0.0000 </r>
       <r>   24.9018    0.0000 </r>
       <r>   25.0156    0.0000 </r>
       <r>   25.6576    0.0000 </r>
      </set>
      <set comment="kpoint 15">
       <r>  -55.7337    1.0000 </r>
       <r>  -55.7336    1.0000 </r>
       <r>  -30.0133    1.0000 </r>
       <r>  -30.0133    1.0000 </r>
       <r>  -29.8299    1.0000 </r>
       <r>  -29.8299    1.0000 </r>
       <r>  -29.8243    1.0000 </r>
       <r>  -29.8243    1.0000 </r>
       <r>   -7.1231    1.0000 </r>
       <r>   -7.1013    1.0000 </r>
       <r>   -6.8941    1.0000 </r>
       <r>   -6.8708    1.0000 </r>
       <r>   -0.1679    1.0000 </r>
       <r>   -0.1057    1.0000 </r>
       <r>    0.2765    1.0000 </r>
       <r>    0.2904    1.0000 </r>
       <r>    1.2518    1.0000 </r>
       <r>    1.3876    1.0000 </r>
       <r>    1.8740    1.0000 </r>
       <r>    2.0138    1.0000 </r>
       <r>    2.7514    1.0000 </r>
       <r>    2.8035    1.0000 </r>
       <r>    3.3939    1.0000 </r>
       <r>    3.4645    1.0000 </r>
       <r>    4.6084    1.0000 </r>
       <r>    4.6406    1.0000 </r>
       <r>    7.2177    0.0000 </r>
       <r>    7.3802    0.0000 </r>
       <r>    7.8189    0.0000 </r>
       <r>    7.9384    0.0000 </r>
       <r>    8.3083    0.0000 </r>
       <r>    8.5812    0.0000 </r>
       <r>    9.3488    0.0000 </r>
       <r>    9.6691    0.0000 </r>
       <r>   12.0095    0.0000 </r>
       <r>   12.1366    0.0000 </r>
       <r>   13.5968    0.0000 </r>
       <r>   13.6924    0.0000 </r>
       <r>   14.3128    0.0000 </r>
       <r>   14.6216    0.0000 </r>
       <r>   14.7555    0.0000 </r>
       <r>   14.8531    0.0000 </r>
       <r>   15.5114    0.0000 </r>
       <r>   15.5298    0.0000 </r>
       <r>   15.9410    0.0000 </r>
       <r>   16.6422    0.0000 </r>
       <r>   17.8651    0.0000 </r>
       <r>   18.2392    0.0000 </r>
       <r>   18.3596    0.0000 </r>
       <r>   18.7213    0.0000 </r>
       <r>   18.7509    0.0000 </r>
       <r>   19.3886    0.0000 </r>
       <r>   20.1453    0.0000 </r>
       <r>   20.6804    0.0000 </r>
       <r>   21.1353    0.0000 </r>
       <r>   21.2399    0.0000 </r>
       <r>   21.9852    0.0000 </r>
       <r>   23.0827    0.0000 </r>
       <r>   23.8198    0.0000 </r>
       <r>   24.1604    0.0000 </r>
       <r>   24.2662    0.0000 </r>
       <r>   24.7282    0.0000 </r>
       <r>   24.8658    0.0000 </r>
       <r>   25.4130    0.0000 </r>
       <r>   26.3731    0.0000 </r>
      </set>
      <set comment="kpoint 16">
       <r>  -55.7316    1.0000 </r>
       <r>  -55.7315    1.0000 </r>
       <r>  -30.0288    1.0000 </r>
       <r>  -30.0288    1.0000 </r>
       <r>  -29.8396    1.0000 </r>
       <r>  -29.8395    1.0000 </r>
       <r>  -29.8201    1.0000 </r>
       <r>  -29.8201    1.0000 </r>
       <r>   -6.9825    1.0000 </r>
       <r>   -6.9686    1.0000 </r>
       <r>   -6.8330    1.0000 </r>
       <r>   -6.8196    1.0000 </r>
       <r>   -0.2335    1.0000 </r>
       <r>   -0.1765    1.0000 </r>
       <r>    0.0925    1.0000 </r>
       <r>    0.0993    1.0000 </r>
       <r>    1.1338    1.0000 </r>
       <r>    1.2741    1.0000 </r>
       <r>    1.9607    1.0000 </r>
       <r>    2.0640    1.0000 </r>
       <r>    2.7536    1.0000 </r>
       <r>    2.8045    1.0000 </r>
       <r>    3.2078    1.0000 </r>
       <r>    3.3080    1.0000 </r>
       <r>    4.7768    1.0000 </r>
       <r>    4.8227    1.0000 </r>
       <r>    7.1957    0.0000 </r>
       <r>    7.2366    0.0000 </r>
       <r>    8.0873    0.0000 </r>
       <r>    8.1376    0.0000 </r>
       <r>    8.4806    0.0000 </r>
       <r>    8.7165    0.0000 </r>
       <r>    9.2989    0.0000 </r>
       <r>    9.6379    0.0000 </r>
       <r>   11.5856    0.0000 </r>
       <r>   11.6545    0.0000 </r>
       <r>   13.8020    0.0000 </r>
       <r>   13.9416    0.0000 </r>
       <r>   14.4495    0.0000 </r>
       <r>   14.5586    0.0000 </r>
       <r>   14.5801    0.0000 </r>
       <r>   14.6606    0.0000 </r>
       <r>   15.1827    0.0000 </r>
       <r>   15.2236    0.0000 </r>
       <r>   15.7063    0.0000 </r>
       <r>   16.6157    0.0000 </r>
       <r>   17.8251    0.0000 </r>
       <r>   18.2649    0.0000 </r>
       <r>   18.4667    0.0000 </r>
       <r>   19.1324    0.0000 </r>
       <r>   19.6481    0.0000 </r>
       <r>   19.6541    0.0000 </r>
       <r>   20.6123    0.0000 </r>
       <r>   20.6469    0.0000 </r>
       <r>   20.8463    0.0000 </r>
       <r>   21.5864    0.0000 </r>
       <r>   22.1278    0.0000 </r>
       <r>   23.2763    0.0000 </r>
       <r>   23.6307    0.0000 </r>
       <r>   23.8218    0.0000 </r>
       <r>   24.0865    0.0000 </r>
       <r>   24.5020    0.0000 </r>
       <r>   25.0352    0.0000 </r>
       <r>   25.2374    0.0000 </r>
       <r>   25.9271    0.0000 </r>
      </set>
      <set comment="kpoint 17">
       <r>  -55.7337    1.0000 </r>
       <r>  -55.7336    1.0000 </r>
       <r>  -29.9923    1.0000 </r>
       <r>  -29.9922    1.0000 </r>
       <r>  -29.8515    1.0000 </r>
       <r>  -29.8515    1.0000 </r>
       <r>  -29.8243    1.0000 </r>
       <r>  -29.8243    1.0000 </r>
       <r>   -7.1303    1.0000 </r>
       <r>   -7.1073    1.0000 </r>
       <r>   -6.8898    1.0000 </r>
       <r>   -6.8647    1.0000 </r>
       <r>    0.0254    1.0000 </r>
       <r>    0.0873    1.0000 </r>
       <r>    0.2400    1.0000 </r>
       <r>    0.2672    1.0000 </r>
       <r>    1.5142    1.0000 </r>
       <r>    1.5506    1.0000 </r>
       <r>    1.8267    1.0000 </r>
       <r>    2.0138    1.0000 </r>
       <r>    2.2117    1.0000 </r>
       <r>    2.2670    1.0000 </r>
       <r>    3.4784    1.0000 </r>
       <r>    3.5275    1.0000 </r>
       <r>    4.5931    1.0000 </r>
       <r>    4.6135    1.0000 </r>
       <r>    7.1555    0.0000 </r>
       <r>    7.3662    0.0000 </r>
       <r>    7.8483    0.0000 </r>
       <r>    7.9697    0.0000 </r>
       <r>    8.0557    0.0000 </r>
       <r>    8.3562    0.0000 </r>
       <r>    9.5118    0.0000 </r>
       <r>    9.8123    0.0000 </r>
       <r>   12.5601    0.0000 </r>
       <r>   12.6385    0.0000 </r>
       <r>   13.1162    0.0000 </r>
       <r>   13.9860    0.0000 </r>
       <r>   14.0967    0.0000 </r>
       <r>   14.4913    0.0000 </r>
       <r>   15.1142    0.0000 </r>
       <r>   15.1853    0.0000 </r>
       <r>   16.3258    0.0000 </r>
       <r>   16.4499    0.0000 </r>
       <r>   16.5165    0.0000 </r>
       <r>   16.6117    0.0000 </r>
       <r>   17.5357    0.0000 </r>
       <r>   17.6784    0.0000 </r>
       <r>   17.7632    0.0000 </r>
       <r>   17.8377    0.0000 </r>
       <r>   17.9847    0.0000 </r>
       <r>   19.0368    0.0000 </r>
       <r>   19.9399    0.0000 </r>
       <r>   20.2338    0.0000 </r>
       <r>   20.7516    0.0000 </r>
       <r>   21.1618    0.0000 </r>
       <r>   21.5768    0.0000 </r>
       <r>   23.7599    0.0000 </r>
       <r>   23.9300    0.0000 </r>
       <r>   24.3209    0.0000 </r>
       <r>   24.3477    0.0000 </r>
       <r>   24.8117    0.0000 </r>
       <r>   25.0029    0.0000 </r>
       <r>   25.9410    0.0000 </r>
       <r>   26.2207    0.0000 </r>
      </set>
      <set comment="kpoint 18">
       <r>  -55.7304    1.0000 </r>
       <r>  -55.7303    1.0000 </r>
       <r>  -29.9967    1.0000 </r>
       <r>  -29.9967    1.0000 </r>
       <r>  -29.8872    1.0000 </r>
       <r>  -29.8871    1.0000 </r>
       <r>  -29.8177    1.0000 </r>
       <r>  -29.8177    1.0000 </r>
       <r>   -6.9141    1.0000 </r>
       <r>   -6.9027    1.0000 </r>
       <r>   -6.7884    1.0000 </r>
       <r>   -6.7769    1.0000 </r>
       <r>   -0.0964    1.0000 </r>
       <r>   -0.0694    1.0000 </r>
       <r>    0.1635    1.0000 </r>
       <r>    0.2080    1.0000 </r>
       <r>    1.2938    1.0000 </r>
       <r>    1.3749    1.0000 </r>
       <r>    1.8980    1.0000 </r>
       <r>    1.9677    1.0000 </r>
       <r>    2.0438    1.0000 </r>
       <r>    2.1782    1.0000 </r>
       <r>    3.1333    1.0000 </r>
       <r>    3.2256    1.0000 </r>
       <r>    4.8911    1.0000 </r>
       <r>    4.9312    1.0000 </r>
       <r>    6.9786    0.0000 </r>
       <r>    7.0148    0.0000 </r>
       <r>    8.1095    0.0000 </r>
       <r>    8.3025    0.0000 </r>
       <r>    8.4104    0.0000 </r>
       <r>    8.4207    0.0000 </r>
       <r>    9.6517    0.0000 </r>
       <r>    9.8881    0.0000 </r>
       <r>   11.9489    0.0000 </r>
       <r>   12.2089    0.0000 </r>
       <r>   13.0083    0.0000 </r>
       <r>   13.5880    0.0000 </r>
       <r>   14.3140    0.0000 </r>
       <r>   14.7740    0.0000 </r>
       <r>   15.4015    0.0000 </r>
       <r>   15.5672    0.0000 </r>
       <r>   15.9310    0.0000 </r>
       <r>   16.0603    0.0000 </r>
       <r>   16.5998    0.0000 </r>
       <r>   16.9401    0.0000 </r>
       <r>   17.0936    0.0000 </r>
       <r>   17.9339    0.0000 </r>
       <r>   18.1564    0.0000 </r>
       <r>   18.4266    0.0000 </r>
       <r>   18.6194    0.0000 </r>
       <r>   19.0611    0.0000 </r>
       <r>   19.9213    0.0000 </r>
       <r>   20.2737    0.0000 </r>
       <r>   20.4661    0.0000 </r>
       <r>   20.7511    0.0000 </r>
       <r>   21.6386    0.0000 </r>
       <r>   23.3776    0.0000 </r>
       <r>   23.6707    0.0000 </r>
       <r>   23.8806    0.0000 </r>
       <r>   23.9902    0.0000 </r>
       <r>   24.1330    0.0000 </r>
       <r>   25.0520    0.0000 </r>
       <r>   25.2233    0.0000 </r>
       <r>   26.4129    0.0000 </r>
      </set>
      <set comment="kpoint 19">
       <r>  -55.7291    1.0000 </r>
       <r>  -55.7291    1.0000 </r>
       <r>  -29.9700    1.0000 </r>
       <r>  -29.9700    1.0000 </r>
       <r>  -29.9288    1.0000 </r>
       <r>  -29.9288    1.0000 </r>
       <r>  -29.8153    1.0000 </r>
       <r>  -29.8153    1.0000 </r>
       <r>   -6.8327    1.0000 </r>
       <r>   -6.8327    1.0000 </r>
       <r>   -6.7433    1.0000 </r>
       <r>   -6.7433    1.0000 </r>
       <r>   -0.2421    1.0000 </r>
       <r>   -0.2109    1.0000 </r>
       <r>    0.5763    1.0000 </r>
       <r>    0.5763    1.0000 </r>
       <r>    1.0657    1.0000 </r>
       <r>    1.1197    1.0000 </r>
       <r>    1.5871    1.0000 </r>
       <r>    1.5871    1.0000 </r>
       <r>    2.2609    1.0000 </r>
       <r>    2.2609    1.0000 </r>
       <r>    3.0015    1.0000 </r>
       <r>    3.0015    1.0000 </r>
       <r>    5.0821    1.0000 </r>
       <r>    5.1222    1.0000 </r>
       <r>    6.7562    0.0000 </r>
       <r>    6.7563    0.0000 </r>
       <r>    8.0085    0.0000 </r>
       <r>    8.3461    0.0000 </r>
       <r>    8.6061    0.0000 </r>
       <r>    8.6061    0.0000 </r>
       <r>    9.9062    0.0000 </r>
       <r>    9.9063    0.0000 </r>
       <r>   11.8895    0.0000 </r>
       <r>   12.6708    0.0000 </r>
       <r>   12.6708    0.0000 </r>
       <r>   12.7677    0.0000 </r>
       <r>   14.7773    0.0000 </r>
       <r>   14.7773    0.0000 </r>
       <r>   15.8812    0.0000 </r>
       <r>   15.9343    0.0000 </r>
       <r>   15.9343    0.0000 </r>
       <r>   16.6211    0.0000 </r>
       <r>   16.6579    0.0000 </r>
       <r>   16.8114    0.0000 </r>
       <r>   17.9545    0.0000 </r>
       <r>   17.9545    0.0000 </r>
       <r>   17.9743    0.0000 </r>
       <r>   17.9743    0.0000 </r>
       <r>   18.1350    0.0000 </r>
       <r>   19.3014    0.0000 </r>
       <r>   19.5874    0.0000 </r>
       <r>   19.5874    0.0000 </r>
       <r>   20.0858    0.0000 </r>
       <r>   21.2867    0.0000 </r>
       <r>   21.2867    0.0000 </r>
       <r>   22.8889    0.0000 </r>
       <r>   23.4791    0.0000 </r>
       <r>   23.4791    0.0000 </r>
       <r>   23.5890    0.0000 </r>
       <r>   23.5890    0.0000 </r>
       <r>   24.8399    0.0000 </r>
       <r>   25.6893    0.0000 </r>
       <r>   26.6560    0.0000 </r>
      </set>
     </set>
    </set>
   </array>
  </eigenvalues>
  <separator name="orbital magnetization" >
   <v name="MAGDIPOLOUT">      0.00000000      0.00000000      0.00000000</v>
  </separator>
  <dos>
   <i name="efermi">      5.65397502 </i>
   <total>
    <array>
     <dimension dim="1">gridpoints</dimension>
     <dimension dim="2">spin</dimension>
     <field>energy</field>
     <field>total</field>
     <field>integrated</field>
     <set>
      <set comment="spin 1">
       <r>   -59.8906     0.0000     0.0000 </r>
       <r>   -59.8603     0.0000     0.0000 </r>
       <r>   -59.8301     0.0000     0.0000 </r>
       <r>   -59.7999     0.0000     0.0000 </r>
       <r>   -59.7697     0.0000     0.0000 </r>
       <r>   -59.7394     0.0000     0.0000 </r>
       <r>   -59.7092     0.0000     0.0000 </r>
       <r>   -59.6790     0.0000     0.0000 </r>
       <r>   -59.6487     0.0000     0.0000 </r>
       <r>   -59.6185     0.0000     0.0000 </r>
       <r>   -59.5883     0.0000     0.0000 </r>
       <r>   -59.5580     0.0000     0.0000 </r>
       <r>   -59.5278     0.0000     0.0000 </r>
       <r>   -59.4976     0.0000     0.0000 </r>
       <r>   -59.4673     0.0000     0.0000 </r>
       <r>   -59.4371     0.0000     0.0000 </r>
       <r>   -59.4069     0.0000     0.0000 </r>
       <r>   -59.3766     0.0000     0.0000 </r>
       <r>   -59.3464     0.0000     0.0000 </r>
       <r>   -59.3162     0.0000     0.0000 </r>
       <r>   -59.2859     0.0000     0.0000 </r>
       <r>   -59.2557     0.0000     0.0000 </r>
       <r>   -59.2255     0.0000     0.0000 </r>
       <r>   -59.1952     0.0000     0.0000 </r>
       <r>   -59.1650     0.0000     0.0000 </r>
       <r>   -59.1348     0.0000     0.0000 </r>
       <r>   -59.1045     0.0000     0.0000 </r>
       <r>   -59.0743     0.0000     0.0000 </r>
       <r>   -59.0441     0.0000     0.0000 </r>
       <r>   -59.0138     0.0000     0.0000 </r>
       <r>   -58.9836     0.0000     0.0000 </r>
       <r>   -58.9534     0.0000     0.0000 </r>
       <r>   -58.9231     0.0000     0.0000 </r>
       <r>   -58.8929     0.0000     0.0000 </r>
       <r>   -58.8627     0.0000     0.0000 </r>
       <r>   -58.8324     0.0000     0.0000 </r>
       <r>   -58.8022     0.0000     0.0000 </r>
       <r>   -58.7720     0.0000     0.0000 </r>
       <r>   -58.7417     0.0000     0.0000 </r>
       <r>   -58.7115     0.0000     0.0000 </r>
       <r>   -58.6813     0.0000     0.0000 </r>
       <r>   -58.6510     0.0000     0.0000 </r>
       <r>   -58.6208     0.0000     0.0000 </r>
       <r>   -58.5906     0.0000     0.0000 </r>
       <r>   -58.5603     0.0000     0.0000 </r>
       <r>   -58.5301     0.0000     0.0000 </r>
       <r>   -58.4999     0.0000     0.0000 </r>
       <r>   -58.4696     0.0000     0.0000 </r>
       <r>   -58.4394     0.0000     0.0000 </r>
       <r>   -58.4092     0.0000     0.0000 </r>
       <r>   -58.3789     0.0000     0.0000 </r>
       <r>   -58.3487     0.0000     0.0000 </r>
       <r>   -58.3185     0.0000     0.0000 </r>
       <r>   -58.2882     0.0000     0.0000 </r>
       <r>   -58.2580     0.0000     0.0000 </r>
       <r>   -58.2278     0.0000     0.0000 </r>
       <r>   -58.1976     0.0000     0.0000 </r>
       <r>   -58.1673     0.0000     0.0000 </r>
       <r>   -58.1371     0.0000     0.0000 </r>
       <r>   -58.1069     0.0000     0.0000 </r>
       <r>   -58.0766     0.0000     0.0000 </r>
       <r>   -58.0464     0.0000     0.0000 </r>
       <r>   -58.0162     0.0000     0.0000 </r>
       <r>   -57.9859     0.0000     0.0000 </r>
       <r>   -57.9557     0.0000     0.0000 </r>
       <r>   -57.9255     0.0000     0.0000 </r>
       <r>   -57.8952     0.0000     0.0000 </r>
       <r>   -57.8650     0.0000     0.0000 </r>
       <r>   -57.8348     0.0000     0.0000 </r>
       <r>   -57.8045     0.0000     0.0000 </r>
       <r>   -57.7743     0.0000     0.0000 </r>
       <r>   -57.7441     0.0000     0.0000 </r>
       <r>   -57.7138     0.0000     0.0000 </r>
       <r>   -57.6836     0.0000     0.0000 </r>
       <r>   -57.6534     0.0000     0.0000 </r>
       <r>   -57.6231     0.0000     0.0000 </r>
       <r>   -57.5929     0.0000     0.0000 </r>
       <r>   -57.5627     0.0000     0.0000 </r>
       <r>   -57.5324     0.0000     0.0000 </r>
       <r>   -57.5022     0.0000     0.0000 </r>
       <r>   -57.4720     0.0000     0.0000 </r>
       <r>   -57.4417     0.0000     0.0000 </r>
       <r>   -57.4115     0.0000     0.0000 </r>
       <r>   -57.3813     0.0000     0.0000 </r>
       <r>   -57.3510     0.0000     0.0000 </r>
       <r>   -57.3208     0.0000     0.0000 </r>
       <r>   -57.2906     0.0000     0.0000 </r>
       <r>   -57.2603     0.0000     0.0000 </r>
       <r>   -57.2301     0.0000     0.0000 </r>
       <r>   -57.1999     0.0000     0.0000 </r>
       <r>   -57.1696     0.0000     0.0000 </r>
       <r>   -57.1394     0.0000     0.0000 </r>
       <r>   -57.1092     0.0000     0.0000 </r>
       <r>   -57.0789     0.0000     0.0000 </r>
       <r>   -57.0487     0.0000     0.0000 </r>
       <r>   -57.0185     0.0000     0.0000 </r>
       <r>   -56.9882     0.0000     0.0000 </r>
       <r>   -56.9580     0.0000     0.0000 </r>
       <r>   -56.9278     0.0000     0.0000 </r>
       <r>   -56.8975     0.0000     0.0000 </r>
       <r>   -56.8673     0.0000     0.0000 </r>
       <r>   -56.8371     0.0000     0.0000 </r>
       <r>   -56.8068     0.0000     0.0000 </r>
       <r>   -56.7766     0.0000     0.0000 </r>
       <r>   -56.7464     0.0000     0.0000 </r>
       <r>   -56.7161     0.0000     0.0000 </r>
       <r>   -56.6859     0.0000     0.0000 </r>
       <r>   -56.6557     0.0000     0.0000 </r>
       <r>   -56.6254     0.0000     0.0000 </r>
       <r>   -56.5952     0.0000     0.0000 </r>
       <r>   -56.5650     0.0000     0.0000 </r>
       <r>   -56.5348     0.0000     0.0000 </r>
       <r>   -56.5045     0.0000     0.0000 </r>
       <r>   -56.4743     0.0000     0.0000 </r>
       <r>   -56.4441     0.0000     0.0000 </r>
       <r>   -56.4138     0.0000     0.0000 </r>
       <r>   -56.3836     0.0000     0.0000 </r>
       <r>   -56.3534     0.0000     0.0000 </r>
       <r>   -56.3231     0.0000     0.0000 </r>
       <r>   -56.2929     0.0000     0.0000 </r>
       <r>   -56.2627     0.0000     0.0000 </r>
       <r>   -56.2324     0.0000     0.0000 </r>
       <r>   -56.2022     0.0000     0.0000 </r>
       <r>   -56.1720     0.0000     0.0000 </r>
       <r>   -56.1417     0.0000     0.0000 </r>
       <r>   -56.1115     0.0000     0.0000 </r>
[...]
       <r>    19.4098     5.4953   102.7676 </r>
       <r>    19.4400     4.0633   102.8904 </r>
       <r>    19.4703     3.1771   102.9865 </r>
       <r>    19.5005     2.4819   103.0615 </r>
       <r>    19.5307     1.3721   103.1030 </r>
       <r>    19.5610     0.9331   103.1312 </r>
       <r>    19.5912     1.8908   103.1884 </r>
       <r>    19.6214     3.9307   103.3072 </r>
       <r>    19.6517     5.9282   103.4864 </r>
       <r>    19.6819     6.7586   103.6908 </r>
       <r>    19.7121     6.2523   103.8798 </r>
       <r>    19.7424     5.0320   104.0319 </r>
       <r>    19.7726     4.0469   104.1543 </r>
       <r>    19.8028     4.1131   104.2786 </r>
       <r>    19.8331     5.1842   104.4353 </r>
       <r>    19.8633     5.9175   104.6142 </r>
       <r>    19.8935     5.6746   104.7858 </r>
       <r>    19.9238     5.2721   104.9452 </r>
       <r>    19.9540     4.5973   105.0842 </r>
       <r>    19.9842     3.5410   105.1912 </r>
       <r>    20.0144     2.7407   105.2741 </r>
       <r>    20.0447     2.8643   105.3607 </r>
       <r>    20.0749     4.0919   105.4844 </r>
       <r>    20.1051     5.5943   105.6535 </r>
       <r>    20.1354     7.2594   105.8730 </r>
       <r>    20.1656     7.9175   106.1124 </r>
       <r>    20.1958     6.1189   106.2974 </r>
       <r>    20.2261     3.9779   106.4176 </r>
       <r>    20.2563     3.3810   106.5198 </r>
       <r>    20.2865     3.7217   106.6324 </r>
       <r>    20.3168     4.1087   106.7566 </r>
       <r>    20.3470     4.6022   106.8957 </r>
       <r>    20.3772     5.4100   107.0593 </r>
       <r>    20.4075     5.9042   107.2378 </r>
       <r>    20.4377     5.2963   107.3979 </r>
       <r>    20.4679     4.1019   107.5219 </r>
       <r>    20.4982     3.2540   107.6203 </r>
       <r>    20.5284     2.7643   107.7039 </r>
       <r>    20.5586     2.2908   107.7731 </r>
       <r>    20.5889     2.1892   107.8393 </r>
       <r>    20.6191     2.7316   107.9219 </r>
       <r>    20.6493     3.8532   108.0384 </r>
       <r>    20.6796     5.6443   108.2090 </r>
       <r>    20.7098     7.0697   108.4228 </r>
       <r>    20.7400     7.2940   108.6433 </r>
       <r>    20.7703     6.0120   108.8250 </r>
       <r>    20.8005     3.4744   108.9301 </r>
       <r>    20.8307     1.7758   108.9838 </r>
       <r>    20.8610     1.8329   109.0392 </r>
       <r>    20.8912     3.0261   109.1307 </r>
       <r>    20.9214     4.1169   109.2551 </r>
       <r>    20.9517     3.6329   109.3650 </r>
       <r>    20.9819     2.7406   109.4478 </r>
       <r>    21.0121     2.9124   109.5359 </r>
       <r>    21.0424     3.5190   109.6422 </r>
       <r>    21.0726     4.8270   109.7882 </r>
       <r>    21.1028     6.7126   109.9911 </r>
       <r>    21.1331     7.0279   110.2036 </r>
       <r>    21.1633     5.6086   110.3732 </r>
       <r>    21.1935     4.5300   110.5101 </r>
       <r>    21.2238     4.5599   110.6480 </r>
       <r>    21.2540     4.9094   110.7964 </r>
       <r>    21.2842     5.3932   110.9594 </r>
       <r>    21.3145     5.8411   111.1360 </r>
       <r>    21.3447     5.6402   111.3066 </r>
       <r>    21.3749     5.0966   111.4606 </r>
       <r>    21.4052     4.4531   111.5953 </r>
       <r>    21.4354     4.3779   111.7276 </r>
       <r>    21.4656     5.6050   111.8971 </r>
       <r>    21.4959     6.7283   112.1005 </r>
       <r>    21.5261     6.0091   112.2822 </r>
       <r>    21.5563     4.8042   112.4274 </r>
       <r>    21.5865     4.4822   112.5629 </r>
       <r>    21.6168     4.8668   112.7101 </r>
       <r>    21.6470     5.5543   112.8780 </r>
       <r>    21.6772     5.8797   113.0557 </r>
       <r>    21.7075     6.1701   113.2423 </r>
       <r>    21.7377     6.7989   113.4478 </r>
       <r>    21.7679     6.0307   113.6302 </r>
       <r>    21.7982     3.8489   113.7465 </r>
       <r>    21.8284     2.4315   113.8200 </r>
       <r>    21.8586     2.5522   113.8972 </r>
       <r>    21.8889     2.9127   113.9852 </r>
       <r>    21.9191     2.2650   114.0537 </r>
       <r>    21.9493     1.9791   114.1136 </r>
       <r>    21.9796     3.1070   114.2075 </r>
       <r>    22.0098     3.8008   114.3224 </r>
       <r>    22.0400     2.7040   114.4041 </r>
       <r>    22.0703     1.2660   114.4424 </r>
       <r>    22.1005     1.0756   114.4749 </r>
       <r>    22.1307     2.0714   114.5376 </r>
       <r>    22.1610     3.0185   114.6288 </r>
       <r>    22.1912     2.8739   114.7157 </r>
       <r>    22.2214     2.1371   114.7803 </r>
       <r>    22.2517     2.4025   114.8530 </r>
       <r>    22.2819     3.7345   114.9659 </r>
       <r>    22.3121     4.7155   115.1084 </r>
       <r>    22.3424     5.2553   115.2673 </r>
       <r>    22.3726     5.1105   115.4218 </r>
       <r>    22.4028     3.4137   115.5250 </r>
       <r>    22.4331     1.7268   115.5772 </r>
       <r>    22.4633     2.0294   115.6386 </r>
       <r>    22.4935     3.7213   115.7511 </r>
       <r>    22.5238     4.5764   115.8894 </r>
       <r>    22.5540     3.8013   116.0044 </r>
       <r>    22.5842     2.5933   116.0828 </r>
       <r>    22.6145     2.2474   116.1507 </r>
       <r>    22.6447     2.6373   116.2304 </r>
       <r>    22.6749     2.6502   116.3106 </r>
       <r>    22.7052     2.0286   116.3719 </r>
       <r>    22.7354     1.7745   116.4255 </r>
       <r>    22.7656     2.6905   116.5069 </r>
       <r>    22.7959     4.3961   116.6398 </r>
       <r>    22.8261     4.8588   116.7867 </r>
       <r>    22.8563     3.2213   116.8841 </r>
       <r>    22.8866     1.6692   116.9345 </r>
       <r>    22.9168     1.6069   116.9831 </r>
       <r>    22.9470     2.2470   117.0510 </r>
       <r>    22.9773     2.3266   117.1214 </r>
       <r>    23.0075     1.6515   117.1713 </r>
       <r>    23.0377     1.1353   117.2056 </r>
       <r>    23.0680     1.4723   117.2501 </r>
       <r>    23.0982     1.8784   117.3069 </r>
       <r>    23.1284     1.5427   117.3536 </r>
       <r>    23.1587     1.5698   117.4010 </r>
       <r>    23.1889     2.8302   117.4866 </r>
       <r>    23.2191     4.5038   117.6228 </r>
       <r>    23.2493     5.4635   117.7879 </r>
       <r>    23.2796     4.6337   117.9280 </r>
       <r>    23.3098     2.5603   118.0054 </r>
       <r>    23.3400     1.3888   118.0474 </r>
       <r>    23.3703     1.6511   118.0973 </r>
       <r>    23.4005     1.9159   118.1553 </r>
       <r>    23.4307     1.8105   118.2100 </r>
       <r>    23.4610     2.7599   118.2934 </r>
       <r>    23.4912     4.3927   118.4262 </r>
       <r>    23.5214     5.0235   118.5781 </r>
       <r>    23.5517     5.3805   118.7408 </r>
       <r>    23.5819     6.2082   118.9285 </r>
       <r>    23.6121     6.8297   119.1350 </r>
       <r>    23.6424     7.2983   119.3556 </r>
       <r>    23.6726     7.5169   119.5829 </r>
       <r>    23.7028     6.6723   119.7846 </r>
       <r>    23.7331     4.7530   119.9283 </r>
       <r>    23.7633     3.3312   120.0290 </r>
       <r>    23.7935     3.8053   120.1440 </r>
       <r>    23.8238     5.1428   120.2995 </r>
       <r>    23.8540     5.3492   120.4612 </r>
       <r>    23.8842     5.6744   120.6328 </r>
       <r>    23.9145     7.6487   120.8640 </r>
       <r>    23.9447     8.8438   121.1314 </r>
       <r>    23.9749     7.9108   121.3706 </r>
       <r>    24.0052     6.9345   121.5802 </r>
       <r>    24.0354     6.3647   121.7726 </r>
       <r>    24.0656     5.7281   121.9458 </r>
       <r>    24.0959     4.9059   122.0941 </r>
       <r>    24.1261     4.6737   122.2354 </r>
       <r>    24.1563     5.6260   122.4055 </r>
       <r>    24.1866     6.1545   122.5916 </r>
       <r>    24.2168     5.3196   122.7524 </r>
       <r>    24.2470     4.6618   122.8933 </r>
       <r>    24.2773     4.8357   123.0395 </r>
       <r>    24.3075     5.1357   123.1948 </r>
       <r>    24.3377     6.1348   123.3803 </r>
       <r>    24.3680     6.6928   123.5826 </r>
       <r>    24.3982     4.9410   123.7320 </r>
       <r>    24.4284     2.3592   123.8033 </r>
       <r>    24.4587     1.3270   123.8434 </r>
       <r>    24.4889     2.3784   123.9154 </r>
       <r>    24.5191     4.2087   124.0426 </r>
       <r>    24.5494     4.7281   124.1855 </r>
       <r>    24.5796     3.4579   124.2901 </r>
       <r>    24.6098     1.9883   124.3502 </r>
       <r>    24.6401     1.3131   124.3899 </r>
       <r>    24.6703     1.1978   124.4261 </r>
       <r>    24.7005     1.8623   124.4824 </r>
       <r>    24.7308     2.8988   124.5700 </r>
       <r>    24.7610     3.3656   124.6718 </r>
       <r>    24.7912     4.2777   124.8011 </r>
       <r>    24.8214     6.3575   124.9933 </r>
       <r>    24.8517     8.4297   125.2482 </r>
       <r>    24.8819     9.5073   125.5356 </r>
       <r>    24.9121     8.8710   125.8038 </r>
       <r>    24.9424     7.3245   126.0252 </r>
       <r>    24.9726     6.3802   126.2181 </r>
       <r>    25.0028     6.1451   126.4039 </r>
       <r>    25.0331     6.1671   126.5904 </r>
       <r>    25.0633     5.5090   126.7569 </r>
       <r>    25.0935     3.9024   126.8749 </r>
       <r>    25.1238     2.4645   126.9494 </r>
       <r>    25.1540     2.2775   127.0183 </r>
       <r>    25.1842     3.1322   127.1130 </r>
       <r>    25.2145     4.4376   127.2471 </r>
       <r>    25.2447     5.3220   127.4080 </r>
       <r>    25.2749     4.7230   127.5508 </r>
       <r>    25.3052     3.2293   127.6484 </r>
       <r>    25.3354     2.1740   127.7142 </r>
       <r>    25.3656     2.0351   127.7757 </r>
       <r>    25.3959     2.6343   127.8553 </r>
       <r>    25.4261     2.9622   127.9449 </r>
       <r>    25.4563     2.1881   128.0110 </r>
       <r>    25.4866     1.6020   128.0595 </r>
       <r>    25.5168     2.0122   128.1203 </r>
       <r>    25.5470     2.3143   128.1903 </r>
       <r>    25.5773     2.2637   128.2587 </r>
       <r>    25.6075     2.7926   128.3431 </r>
       <r>    25.6377     4.1220   128.4678 </r>
       <r>    25.6680     5.3153   128.6284 </r>
       <r>    25.6982     5.4556   128.7934 </r>
       <r>    25.7284     4.8057   128.9387 </r>
       <r>    25.7587     3.7322   129.0515 </r>
       <r>    25.7889     2.0861   129.1146 </r>
       <r>    25.8191     0.6816   129.1352 </r>
       <r>    25.8494     0.1637   129.1401 </r>
       <r>    25.8796     0.3190   129.1498 </r>
       <r>    25.9098     1.0231   129.1807 </r>
       <r>    25.9401     1.7438   129.2334 </r>
       <r>    25.9703     1.5846   129.2813 </r>
       <r>    26.0005     1.0720   129.3137 </r>
       <r>    26.0308     1.4127   129.3565 </r>
       <r>    26.0610     2.2187   129.4235 </r>
       <r>    26.0912     2.2367   129.4912 </r>
       <r>    26.1215     1.4239   129.5342 </r>
       <r>    26.1517     0.6275   129.5532 </r>
       <r>    26.1819     0.4369   129.5664 </r>
       <r>    26.2122     0.7556   129.5892 </r>
       <r>    26.2424     0.8994   129.6164 </r>
       <r>    26.2726     0.5600   129.6334 </r>
       <r>    26.3029     0.2896   129.6421 </r>
       <r>    26.3331     0.6671   129.6623 </r>
       <r>    26.3633     1.8239   129.7174 </r>
       <r>    26.3935     2.9733   129.8073 </r>
       <r>    26.4238     2.9472   129.8964 </r>
       <r>    26.4540     1.7722   129.9500 </r>
       <r>    26.4842     0.6108   129.9685 </r>
       <r>    26.5145     0.1133   129.9719 </r>
       <r>    26.5447     0.0116   129.9722 </r>
       <r>    26.5749     0.0098   129.9725 </r>
       <r>    26.6052     0.0591   129.9743 </r>
       <r>    26.6354     0.1881   129.9800 </r>
       <r>    26.6656     0.3007   129.9891 </r>
       <r>    26.6959     0.2416   129.9964 </r>
       <r>    26.7261     0.0975   129.9993 </r>
       <r>    26.7563     0.0197   129.9999 </r>
       <r>    26.7866     0.0020   130.0000 </r>
       <r>    26.8168     0.0001   130.0000 </r>
       <r>    26.8470     0.0000   130.0000 </r>
       <r>    26.8773     0.0000   130.0000 </r>
       <r>    26.9075     0.0000   130.0000 </r>
       <r>    26.9377     0.0000   130.0000 </r>
       <r>    26.9680     0.0000   130.0000 </r>
       <r>    26.9982     0.0000   130.0000 </r>
       <r>    27.0284     0.0000   130.0000 </r>
       <r>    27.0587     0.0000   130.0000 </r>
       <r>    27.0889     0.0000   130.0000 </r>
       <r>    27.1191     0.0000   130.0000 </r>
       <r>    27.1494     0.0000   130.0000 </r>
       <r>    27.1796     0.0000   130.0000 </r>
       <r>    27.2098     0.0000   130.0000 </r>
       <r>    27.2401     0.0000   130.0000 </r>
       <r>    27.2703     0.0000   130.0000 </r>
       <r>    27.3005     0.0000   130.0000 </r>
       <r>    27.3308     0.0000   130.0000 </r>
       <r>    27.3610     0.0000   130.0000 </r>
       <r>    27.3912     0.0000   130.0000 </r>
       <r>    27.4215     0.0000   130.0000 </r>
       <r>    27.4517     0.0000   130.0000 </r>
       <r>    27.4819     0.0000   130.0000 </r>
       <r>    27.5122     0.0000   130.0000 </r>
       <r>    27.5424     0.0000   130.0000 </r>
       <r>    27.5726     0.0000   130.0000 </r>
       <r>    27.6029     0.0000   130.0000 </r>
       <r>    27.6331     0.0000   130.0000 </r>
       <r>    27.6633     0.0000   130.0000 </r>
       <r>    27.6936     0.0000   130.0000 </r>
       <r>    27.7238     0.0000   130.0000 </r>
       <r>    27.7540     0.0000   130.0000 </r>
       <r>    27.7843     0.0000   130.0000 </r>
       <r>    27.8145     0.0000   130.0000 </r>
       <r>    27.8447     0.0000   130.0000 </r>
       <r>    27.8750     0.0000   130.0000 </r>
       <r>    27.9052     0.0000   130.0000 </r>
       <r>    27.9354     0.0000   130.0000 </r>
       <r>    27.9656     0.0000   130.0000 </r>
       <r>    27.9959     0.0000   130.0000 </r>
       <r>    28.0261     0.0000   130.0000 </r>
       <r>    28.0563     0.0000   130.0000 </r>
       <r>    28.0866     0.0000   130.0000 </r>
       <r>    28.1168     0.0000   130.0000 </r>
       <r>    28.1470     0.0000   130.0000 </r>
       <r>    28.1773     0.0000   130.0000 </r>
       <r>    28.2075     0.0000   130.0000 </r>
       <r>    28.2377     0.0000   130.0000 </r>
       <r>    28.2680     0.0000   130.0000 </r>
       <r>    28.2982     0.0000   130.0000 </r>
       <r>    28.3284     0.0000   130.0000 </r>
       <r>    28.3587     0.0000   130.0000 </r>
       <r>    28.3889     0.0000   130.0000 </r>
       <r>    28.4191     0.0000   130.0000 </r>
       <r>    28.4494     0.0000   130.0000 </r>
       <r>    28.4796     0.0000   130.0000 </r>
       <r>    28.5098     0.0000   130.0000 </r>
       <r>    28.5401     0.0000   130.0000 </r>
       <r>    28.5703     0.0000   130.0000 </r>
       <r>    28.6005     0.0000   130.0000 </r>
       <r>    28.6308     0.0000   130.0000 </r>
       <r>    28.6610     0.0000   130.0000 </r>
       <r>    28.6912     0.0000   130.0000 </r>
       <r>    28.7215     0.0000   130.0000 </r>
       <r>    28.7517     0.0000   130.0000 </r>
       <r>    28.7819     0.0000   130.0000 </r>
       <r>    28.8122     0.0000   130.0000 </r>
       <r>    28.8424     0.0000   130.0000 </r>
       <r>    28.8726     0.0000   130.0000 </r>
       <r>    28.9029     0.0000   130.0000 </r>
       <r>    28.9331     0.0000   130.0000 </r>
       <r>    28.9633     0.0000   130.0000 </r>
       <r>    28.9936     0.0000   130.0000 </r>
       <r>    29.0238     0.0000   130.0000 </r>
       <r>    29.0540     0.0000   130.0000 </r>
       <r>    29.0843     0.0000   130.0000 </r>
       <r>    29.1145     0.0000   130.0000 </r>
       <r>    29.1447     0.0000   130.0000 </r>
       <r>    29.1750     0.0000   130.0000 </r>
       <r>    29.2052     0.0000   130.0000 </r>
       <r>    29.2354     0.0000   130.0000 </r>
       <r>    29.2657     0.0000   130.0000 </r>
       <r>    29.2959     0.0000   130.0000 </r>
       <r>    29.3261     0.0000   130.0000 </r>
       <r>    29.3564     0.0000   130.0000 </r>
       <r>    29.3866     0.0000   130.0000 </r>
       <r>    29.4168     0.0000   130.0000 </r>
       <r>    29.4471     0.0000   130.0000 </r>
       <r>    29.4773     0.0000   130.0000 </r>
       <r>    29.5075     0.0000   130.0000 </r>
       <r>    29.5378     0.0000   130.0000 </r>
       <r>    29.5680     0.0000   130.0000 </r>
       <r>    29.5982     0.0000   130.0000 </r>
       <r>    29.6284     0.0000   130.0000 </r>
       <r>    29.6587     0.0000   130.0000 </r>
       <r>    29.6889     0.0000   130.0000 </r>
       <r>    29.7191     0.0000   130.0000 </r>
       <r>    29.7494     0.0000   130.0000 </r>
       <r>    29.7796     0.0000   130.0000 </r>
       <r>    29.8098     0.0000   130.0000 </r>
       <r>    29.8401     0.0000   130.0000 </r>
       <r>    29.8703     0.0000   130.0000 </r>
       <r>    29.9005     0.0000   130.0000 </r>
       <r>    29.9308     0.0000   130.0000 </r>
       <r>    29.9610     0.0000   130.0000 </r>
       <r>    29.9912     0.0000   130.0000 </r>
       <r>    30.0215     0.0000   130.0000 </r>
       <r>    30.0517     0.0000   130.0000 </r>
       <r>    30.0819     0.0000   130.0000 </r>
       <r>    30.1122     0.0000   130.0000 </r>
       <r>    30.1424     0.0000   130.0000 </r>
       <r>    30.1726     0.0000   130.0000 </r>
       <r>    30.2029     0.0000   130.0000 </r>
       <r>    30.2331     0.0000   130.0000 </r>
       <r>    30.2633     0.0000   130.0000 </r>
       <r>    30.2936     0.0000   130.0000 </r>
       <r>    30.3238     0.0000   130.0000 </r>
       <r>    30.3540     0.0000   130.0000 </r>
       <r>    30.3843     0.0000   130.0000 </r>
       <r>    30.4145     0.0000   130.0000 </r>
       <r>    30.4447     0.0000   130.0000 </r>
       <r>    30.4750     0.0000   130.0000 </r>
       <r>    30.5052     0.0000   130.0000 </r>
       <r>    30.5354     0.0000   130.0000 </r>
       <r>    30.5657     0.0000   130.0000 </r>
       <r>    30.5959     0.0000   130.0000 </r>
       <r>    30.6261     0.0000   130.0000 </r>
       <r>    30.6564     0.0000   130.0000 </r>
       <r>    30.6866     0.0000   130.0000 </r>
       <r>    30.7168     0.0000   130.0000 </r>
       <r>    30.7471     0.0000   130.0000 </r>
       <r>    30.7773     0.0000   130.0000 </r>
      </set>
     </set>
    </array>
   </total>
  </dos>
 </calculation>
 <structure name="finalpos" >
  <crystal>
   <varray name="basis" >
    <v>       1.59650000      -2.76521911       0.00000000 </v>
    <v>       1.59650000       2.76521911       0.00000000 </v>
    <v>       0.00000000       0.00000000      13.98082349 </v>
   </varray>
   <i name="volume">    123.44150881 </i>
   <varray name="rec_basis" >
    <v>       0.31318509      -0.18081750       0.00000000 </v>
    <v>       0.31318509       0.18081750       0.00000000 </v>
    <v>       0.00000000       0.00000000       0.07152654 </v>
   </varray>
  </crystal>
  <varray name="positions" >
   <v>       0.33333333       0.66666667       0.25000000 </v>
   <v>       0.66666667       0.33333333       0.75000000 </v>
   <v>       0.33333333       0.66666667       0.63815337 </v>
   <v>       0.66666667       0.33333333       0.36184663 </v>
   <v>       0.66666667       0.33333333       0.13815336 </v>
   <v>       0.33333333       0.66666667       0.86184667 </v>
  </varray>
  <varray name="velocities" >
   <v>       0.00000000       0.00000000       0.00000000 </v>
   <v>       0.00000000       0.00000000       0.00000000 </v>
   <v>       0.00000000       0.00000000       0.00000000 </v>
   <v>       0.00000000       0.00000000       0.00000000 </v>
   <v>       0.00000000       0.00000000       0.00000000 </v>
   <v>       0.00000000       0.00000000       0.00000000 </v>
  </varray>
 </structure>
</modeling>
