2H-MoS2                                 
   1.00000000000000     
     3.179268   -0.000000    0.000000
    -1.589634    2.753326    0.000000
     0.000000    0.000000   13.745283
   Mo   S 
     2     4
Direct
  0.666667  0.333333  0.250000
  0.333333  0.666667  0.750000
  0.333333  0.666667  0.136084
  0.666667  0.333333  0.636084
  0.333333  0.666667  0.363916
  0.666667  0.333333  0.863916
 
   28   28  128
 0.75756544357E+01 0.75644052867E+01 0.76695898436E+01 0.78975384354E+01 0.80268452130E+01
 0.79904110676E+01 0.78323768383E+01 0.76154362172E+01 0.73818224661E+01 0.71641552812E+01
 0.69757272921E+01 0.68107281609E+01 0.66834618105E+01 0.66010789942E+01 0.65722365064E+01
 0.66010790502E+01 0.66834619325E+01 0.68107283366E+01 0.69757274819E+01 0.71641553721E+01
 0.73818223399E+01 0.76154357689E+01 0.78323762173E+01 0.79904106807E+01 0.80268457850E+01
 0.78975403353E+01 0.76695918533E+01 0.75644058072E+01 0.75644057030E+01 0.75647681117E+01
 0.76318437650E+01 0.78587203299E+01 0.80886870298E+01 0.81555309569E+01 0.80680371805E+01
 0.79012631470E+01 0.77055790828E+01 0.75173124755E+01 0.73443809469E+01 0.72091108637E+01
 0.70995055843E+01 0.70243593260E+01 0.69893431767E+01 0.69901868355E+01 0.70265425973E+01
 0.70963000980E+01 0.72069513125E+01 0.73490832215E+01 0.75175308926E+01 0.77032660133E+01
 0.79006483171E+01 0.80684390057E+01 0.81557354467E+01 0.80900353758E+01 0.78598846773E+01
 0.76307399574E+01 0.76695947198E+01 0.76318434203E+01 0.76675963367E+01 0.78618230863E+01
 0.81565747231E+01 0.83604031444E+01 0.83932628867E+01 0.83040158460E+01 0.81818021793E+01
 0.80543910323E+01 0.79630795144E+01 0.78792388240E+01 0.78230655322E+01 0.77996002770E+01
 0.77794433300E+01 0.77701695388E+01 0.77765374082E+01 0.77996055402E+01 0.78309607323E+01
 0.78757712641E+01 0.79555437691E+01 0.80587990269E+01 0.81802726167E+01 0.83069919789E+01
 0.83896113984E+01 0.83600983242E+01 0.81549833612E+01 0.78598802376E+01 0.78975532267E+01
 0.78587365792E+01 0.78618128345E+01 0.78955731109E+01 0.80876961636E+01 0.83621223073E+01
 0.85196806576E+01 0.85337350739E+01 0.84438955650E+01 0.83380705803E+01 0.82291193159E+01
 0.81390854079E+01 0.81041167862E+01 0.80560292111E+01 0.80042256201E+01 0.79841147495E+01
 0.79851316397E+01 0.80060207127E+01 0.80495779468E+01 0.81018920244E+01 0.81479458542E+01
 0.82294607267E+01 0.83388614087E+01 0.84426605414E+01 0.85329142820E+01 0.85248407235E+01
 0.83600868484E+01 0.80900217788E+01 0.80268593703E+01 0.80887255850E+01 0.81565805327E+01
 0.80876708222E+01 0.80304809867E+01 0.81537586886E+01 0.83925443007E+01 0.85305995267E+01
 0.84806952902E+01 0.83307401560E+01 0.81158954670E+01 0.79156471557E+01 0.77574552583E+01
 0.75493857329E+01 0.74102403426E+01 0.73561757615E+01 0.73299473429E+01 0.73561425145E+01
 0.74161421553E+01 0.75479273131E+01 0.77547918676E+01 0.79117131146E+01 0.81121077112E+01
 0.83324238825E+01 0.84788812279E+01 0.85329320043E+01 0.83896092963E+01 0.81557167992E+01
 0.79904099187E+01 0.81555581696E+01 0.83604216996E+01 0.83621126057E+01 0.81537370760E+01
 0.79912651586E+01 0.80660135906E+01 0.83102818533E+01 0.84444750644E+01 0.83287138145E+01
 0.80326807953E+01 0.76708451581E+01 0.73333274025E+01 0.69515388855E+01 0.67644670941E+01
 0.66624492718E+01 0.66017319110E+01 0.66022551227E+01 0.66528856705E+01 0.67691741942E+01
 0.69567342881E+01 0.73305959498E+01 0.76798298983E+01 0.80300114753E+01 0.83324519630E+01
 0.84427134280E+01 0.83070202043E+01 0.80684267840E+01 0.78323602526E+01 0.80680282993E+01
 0.83932528043E+01 0.85196830619E+01 0.83925548076E+01 0.80660148073E+01 0.78353515309E+01
 0.78985861875E+01 0.81764757879E+01 0.83391808312E+01 0.81150581290E+01 0.76800788445E+01
 0.71695519045E+01 0.67152874325E+01 0.65268943578E+01 0.64225245117E+01 0.63308920843E+01
 0.63179589806E+01 0.63406423147E+01 0.64210980346E+01 0.65179010419E+01 0.67174735466E+01
 0.71649471227E+01 0.76798330948E+01 0.81121464485E+01 0.83389427428E+01 0.81803361307E+01
 0.79006516342E+01 0.76154133956E+01 0.79012201214E+01 0.83039574309E+01 0.85337065616E+01
 0.85306321479E+01 0.83103378133E+01 0.78986155571E+01 0.76172947670E+01 0.77058275019E+01
 0.80604676861E+01 0.82294410144E+01 0.79066036871E+01 0.73335733038E+01 0.67114033151E+01
 0.65113145345E+01 0.64233851943E+01 0.63700897540E+01 0.63497847056E+01 0.63408361306E+01
 0.63693699211E+01 0.64315135356E+01 0.65106559408E+01 0.67174628201E+01 0.73305850573E+01
 0.79117408763E+01 0.82295521808E+01 0.80588882018E+01 0.77032883511E+01 0.73818041804E+01
 0.77055189128E+01 0.81817047527E+01 0.84438214198E+01 0.84806989175E+01 0.84445561644E+01
 0.81765748501E+01 0.77058783386E+01 0.73783775015E+01 0.75188946484E+01 0.79507295330E+01
 0.81523161361E+01 0.77553953226E+01 0.69568333003E+01 0.65241421287E+01 0.64312708700E+01
 0.64050820539E+01 0.64356206381E+01 0.64326421726E+01 0.64374727426E+01 0.63994793844E+01
 0.64314989903E+01 0.65178782003E+01 0.69567084666E+01 0.77548004449E+01 0.81480302046E+01
 0.79556411296E+01 0.75175664566E+01 0.71641463273E+01 0.75172538210E+01 0.80542785523E+01
 0.83379667858E+01 0.83307061393E+01 0.83287567434E+01 0.83392960383E+01 0.80605900604E+01
 0.75189526195E+01 0.71620366374E+01 0.73528248008E+01 0.78765726337E+01 0.80996448892E+01
 0.75469641173E+01 0.67668172231E+01 0.64163496436E+01 0.63695676164E+01 0.64347068949E+01
 0.64743629331E+01 0.64803205146E+01 0.64374641725E+01 0.63693474526E+01 0.64210683344E+01
 0.67691406245E+01 0.75479185758E+01 0.81019597462E+01 0.78758608886E+01 0.73491202470E+01
 0.69757255678E+01 0.73443370499E+01 0.79629726609E+01 0.82290120245E+01 0.81158482754E+01
 0.80326844449E+01 0.81151142616E+01 0.82295619892E+01 0.79508513591E+01 0.73528751218E+01
 0.69712997448E+01 0.72053806927E+01 0.78310077583E+01 0.80510456148E+01 0.74188265379E+01
 0.66545688450E+01 0.63447580952E+01 0.63391374389E+01 0.64428462156E+01 0.64743594923E+01
 0.64326365494E+01 0.63408206468E+01 0.63406189012E+01 0.66528589672E+01 0.74161266927E+01
 0.80496267138E+01 0.78310310932E+01 0.72069815161E+01 0.68107306649E+01 0.72090840895E+01
 0.78791513183E+01 0.81389940675E+01 0.79156164280E+01 0.76708444326E+01 0.76800883765E+01
 0.79066433980E+01 0.81524202097E+01 0.78766773354E+01 0.72054176194E+01 0.68163944629E+01
 0.70948460709E+01 0.78008476101E+01 0.80019984231E+01 0.73567495808E+01 0.65973861683E+01
 0.63196809943E+01 0.63391258142E+01 0.64346957858E+01 0.64356186765E+01 0.63497858689E+01
 0.63179552006E+01 0.66022491777E+01 0.73561342468E+01 0.80060492136E+01 0.77996539277E+01
 0.70963197248E+01 0.66834655907E+01 0.70994933205E+01 0.78230012836E+01 0.81040488066E+01
 0.77574506737E+01 0.73333459231E+01 0.71695574778E+01 0.73335643081E+01 0.77554085159E+01
 0.80997238849E+01 0.78310871030E+01 0.70948687347E+01 0.66836704587E+01 0.70250286833E+01
 0.77808180143E+01 0.79818845964E+01 0.73365403552E+01 0.65973720846E+01 0.63447334965E+01
 0.63695416699E+01 0.64050729194E+01 0.63700993920E+01 0.63309101453E+01 0.66017530881E+01
 0.73299549006E+01 0.79851420700E+01 0.77765630875E+01 0.70265541707E+01 0.66010818175E+01
 0.70243568859E+01 0.77995578906E+01 0.80559840869E+01 0.75494045720E+01 0.69515798010E+01
 0.67153073683E+01 0.67113966170E+01 0.69568049041E+01 0.75469532715E+01 0.80510982923E+01
 0.78009014173E+01 0.70250402446E+01 0.66027845969E+01 0.69863072980E+01 0.77728101950E+01
 0.79818935791E+01 0.73567347375E+01 0.66545331442E+01 0.64163171810E+01 0.64312504455E+01
 0.64233934338E+01 0.64225532653E+01 0.66624924035E+01 0.73561976749E+01 0.79841084176E+01
 0.77701722972E+01 0.69901947411E+01 0.65722397555E+01 0.69893448634E+01 0.77794228546E+01
 0.80042010721E+01 0.74102713053E+01 0.67645179898E+01 0.65269243669E+01 0.65113144642E+01
 0.65241175656E+01 0.67667768974E+01 0.74188036322E+01 0.80020275253E+01 0.77808456108E+01
 0.69863132525E+01 0.65769597939E+01 0.69863106499E+01 0.77808437102E+01 0.80020287464E+01
 0.74188061872E+01 0.67667780770E+01 0.65241175505E+01 0.65113142258E+01 0.65269238457E+01
 0.67645161511E+01 0.74102686978E+01 0.80042003569E+01 0.77794250332E+01 0.69893474466E+01
 0.66010818152E+01 0.69901920825E+01 0.77701699667E+01 0.79841090747E+01 0.73562003343E+01
 0.66624940601E+01 0.64225533625E+01 0.64233932969E+01 0.64312505824E+01 0.64163173044E+01
 0.66545318960E+01 0.73567320862E+01 0.79818923847E+01 0.77728122782E+01 0.69863099853E+01
 0.66027846711E+01 0.70250378331E+01 0.78008997144E+01 0.80510994684E+01 0.75469555505E+01
 0.69568059219E+01 0.67113964545E+01 0.67153066077E+01 0.69515779967E+01 0.75494022306E+01
 0.80559833839E+01 0.77995598612E+01 0.70243592934E+01 0.66834655733E+01 0.70265515369E+01
 0.77765606642E+01 0.79851425767E+01 0.73299574912E+01 0.66017545662E+01 0.63309099329E+01
 0.63700989052E+01 0.64050727786E+01 0.63695419927E+01 0.63447337075E+01 0.65973709160E+01
 0.73365377187E+01 0.79818835773E+01 0.77808201985E+01 0.70250313697E+01 0.66836705896E+01
 0.70948665879E+01 0.78310856030E+01 0.80997249471E+01 0.77554104040E+01 0.73335649847E+01
 0.71695569939E+01 0.73333444727E+01 0.77574487034E+01 0.81040481479E+01 0.78230030179E+01
 0.70994955057E+01 0.68107306434E+01 0.70963171999E+01 0.77996514856E+01 0.80060494812E+01
 0.73561366208E+01 0.66022505238E+01 0.63179548374E+01 0.63497851981E+01 0.64356182500E+01
 0.64346959423E+01 0.63391262311E+01 0.63196813374E+01 0.65973850382E+01 0.73567471625E+01
 0.80019976422E+01 0.78008498590E+01 0.70948486520E+01 0.68163946552E+01 0.72054157482E+01
 0.78766760348E+01 0.81524211407E+01 0.79066448429E+01 0.76800886748E+01 0.76708435942E+01
 0.79156149976E+01 0.81389935768E+01 0.78791528869E+01 0.72090860263E+01 0.69757255702E+01
 0.72069791786E+01 0.78310286487E+01 0.80496267222E+01 0.74161287355E+01 0.66528602678E+01
 0.63406185341E+01 0.63408198852E+01 0.64326359617E+01 0.64743593521E+01 0.64428465350E+01
 0.63391379838E+01 0.63447584810E+01 0.66545677888E+01 0.74188244293E+01 0.80510451546E+01
 0.78310099829E+01 0.72053831218E+01 0.69712999684E+01 0.73528735366E+01 0.79508502511E+01
 0.82295627206E+01 0.81151152847E+01 0.80326845131E+01 0.81158476429E+01 0.82290119447E+01
 0.79629741210E+01 0.73443388158E+01 0.71641464552E+01 0.73491181708E+01 0.78758585016E+01
 0.81019594949E+01 0.75479201550E+01 0.67691418195E+01 0.64210681136E+01 0.63693466841E+01
 0.64374635446E+01 0.64803202105E+01 0.64743629630E+01 0.64347073129E+01 0.63695682497E+01
 0.64163500234E+01 0.67668162717E+01 0.75469624412E+01 0.80996447181E+01 0.78765747859E+01
 0.73528269966E+01 0.71620368787E+01 0.75189513201E+01 0.80605891718E+01 0.83392966334E+01
 0.83287574853E+01 0.83307063753E+01 0.83379672068E+01 0.80542801063E+01 0.75172555348E+01
 0.73818045563E+01 0.75175647684E+01 0.79556388811E+01 0.81480296742E+01 0.77548014837E+01
 0.69567094472E+01 0.65178781895E+01 0.64314983839E+01 0.63994787686E+01 0.64374723919E+01
 0.64326420500E+01 0.64356207716E+01 0.64050825259E+01 0.64312715071E+01 0.65241423846E+01
 0.69568325457E+01 0.77553941273E+01 0.81523161960E+01 0.79507315251E+01 0.75188965644E+01
 0.73783777538E+01 0.77058773030E+01 0.81765742052E+01 0.84445567051E+01 0.84806997313E+01
 0.84438224288E+01 0.81817065209E+01 0.77055207292E+01 0.76154141061E+01 0.77032871758E+01
 0.80588862413E+01 0.82295513612E+01 0.79117413434E+01 0.73305856446E+01 0.67174629315E+01
 0.65106556062E+01 0.64315130767E+01 0.63693695524E+01 0.63408359125E+01 0.63497846920E+01
 0.63700899774E+01 0.64233856824E+01 0.65113150388E+01 0.67114034706E+01 0.73335728172E+01
 0.79066029581E+01 0.82294412775E+01 0.80604694276E+01 0.77058291472E+01 0.76172950475E+01
 0.78986147862E+01 0.83103374073E+01 0.85306328080E+01 0.85337078627E+01 0.83039593800E+01
 0.79012220658E+01 0.78323611679E+01 0.79006510242E+01 0.81803346287E+01 0.83389418107E+01
 0.81121463267E+01 0.76798331997E+01 0.71649470968E+01 0.67174733592E+01 0.65179007545E+01
 0.64210977509E+01 0.63406420886E+01 0.63179588814E+01 0.63308921740E+01 0.64225247899E+01
 0.65268947790E+01 0.67152878393E+01 0.71695521190E+01 0.76800786973E+01 0.81150577714E+01
 0.83391811643E+01 0.81764772533E+01 0.78985876326E+01 0.78353518842E+01 0.80660142621E+01
 0.83925546743E+01 0.85196840179E+01 0.83932546110E+01 0.80680301869E+01 0.79904106770E+01
 0.80684265588E+01 0.83070193108E+01 0.84427125907E+01 0.83324514545E+01 0.80300110598E+01
 0.76798295306E+01 0.73305955758E+01 0.69567339405E+01 0.67691739023E+01 0.66528854649E+01
 0.66022549970E+01 0.66017319195E+01 0.66624494364E+01 0.67644674507E+01 0.69515393954E+01
 0.73333279508E+01 0.76708455908E+01 0.80326808948E+01 0.83287136948E+01 0.84444754023E+01
 0.83102831017E+01 0.80660149724E+01 0.79912656373E+01 0.81537367423E+01 0.83621126992E+01
 0.83604227640E+01 0.81555595314E+01 0.80268593601E+01 0.81557164912E+01 0.83896089216E+01
 0.85329315722E+01 0.84788806459E+01 0.83324231821E+01 0.81121069562E+01 0.79117124083E+01
 0.77547912773E+01 0.75479268287E+01 0.74161418099E+01 0.73561423317E+01 0.73299473411E+01
 0.73561759626E+01 0.74102407812E+01 0.75493863854E+01 0.77574560625E+01 0.79156479568E+01
 0.81158960336E+01 0.83307403347E+01 0.84806952610E+01 0.85305998451E+01 0.83925454728E+01
 0.81537601831E+01 0.80304816613E+01 0.80876706836E+01 0.81565805720E+01 0.80887258967E+01
 0.78975521396E+01 0.80900206906E+01 0.83600864859E+01 0.85248407576E+01 0.85329140851E+01
 0.84426599310E+01 0.83388605555E+01 0.82294598128E+01 0.81479450165E+01 0.81018913424E+01
 0.80495774498E+01 0.80060204224E+01 0.79851316023E+01 0.79841149950E+01 0.80042261428E+01
 0.80560299898E+01 0.81041177474E+01 0.81390864437E+01 0.82291201848E+01 0.83380711001E+01
 0.84438956524E+01 0.85337349942E+01 0.85196810314E+01 0.83621236889E+01 0.80876979231E+01
 0.78955739633E+01 0.78618127239E+01 0.78587359887E+01 0.76695934155E+01 0.78598782372E+01
 0.81549821418E+01 0.83600983046E+01 0.83896117027E+01 0.83069919719E+01 0.81802721639E+01
 0.80587982967E+01 0.79555429407E+01 0.78757704872E+01 0.78309600716E+01 0.77996050775E+01
 0.77765371838E+01 0.77701695841E+01 0.77794436538E+01 0.77996008562E+01 0.78230663329E+01
 0.78792397188E+01 0.79630803462E+01 0.80543915904E+01 0.81818023332E+01 0.83040156527E+01
 0.83932627753E+01 0.83604038336E+01 0.81565765773E+01 0.78618249987E+01 0.76675970377E+01
 0.76318430998E+01 0.75644053665E+01 0.76307383369E+01 0.78598825255E+01 0.80900344370E+01
 0.81557356501E+01 0.80684395163E+01 0.79006486126E+01 0.77032659453E+01 0.75175305532E+01
 0.73490827467E+01 0.72069508380E+01 0.70962996989E+01 0.70265423205E+01 0.69901867113E+01
 0.69893432145E+01 0.70243595288E+01 0.70995059197E+01 0.72091112909E+01 0.73443813513E+01
 0.75173127142E+01 0.77055789983E+01 0.79012627668E+01 0.80680367554E+01 0.81555310880E+01
 0.80886883589E+01 0.78587225505E+01 0.76318451525E+01 0.75647682943E+01 0.78683378914E+01
 0.79798056850E+01 0.82921456766E+01 0.85695314666E+01 0.86412949437E+01 0.85493426131E+01
 0.83912343297E+01 0.82254919725E+01 0.80883118932E+01 0.79791999989E+01 0.79004672876E+01
 0.78577787870E+01 0.78269752245E+01 0.78178976831E+01 0.78112398212E+01 0.78179532993E+01
 0.78299646600E+01 0.78591877897E+01 0.79080867758E+01 0.79832784051E+01 0.80827526235E+01
 0.82268920582E+01 0.83894410317E+01 0.85498555328E+01 0.86457349403E+01 0.85675947663E+01
 0.82869166503E+01 0.79797482417E+01 0.79797497335E+01 0.79797819948E+01 0.80468642055E+01
 0.81472151617E+01 0.82129828512E+01 0.81892689507E+01 0.80866765705E+01 0.79239630160E+01
 0.77329548962E+01 0.75531481571E+01 0.73926937898E+01 0.72527980849E+01 0.71493403162E+01
 0.70743344821E+01 0.70401670831E+01 0.70374313007E+01 0.70736098015E+01 0.71497799460E+01
 0.72492061240E+01 0.73828551841E+01 0.75537259549E+01 0.77352837283E+01 0.79218554014E+01
 0.80861687603E+01 0.81853926266E+01 0.82084501938E+01 0.81479296110E+01 0.80527324705E+01
 0.82869419791E+01 0.83331053472E+01 0.82923362728E+01 0.81485211392E+01 0.79743043201E+01
 0.78627695750E+01 0.77773265505E+01 0.76733127785E+01 0.75313654674E+01 0.73517528482E+01
 0.71629282978E+01 0.69912645501E+01 0.68330020102E+01 0.67077848767E+01 0.66236060299E+01
 0.65992031124E+01 0.66270049158E+01 0.67043549104E+01 0.68347290355E+01 0.69989281292E+01
 0.71669025276E+01 0.73511787852E+01 0.75306650090E+01 0.76727231995E+01 0.77840485866E+01
 0.78629558340E+01 0.79811210413E+01 0.81479514447E+01 0.85676233909E+01 0.87728032898E+01
 0.87657701561E+01 0.85690278901E+01 0.82114241186E+01 0.78641253964E+01 0.76900644434E+01
 0.76364052418E+01 0.76079965104E+01 0.75474769448E+01 0.74587225765E+01 0.73313821838E+01
 0.72019033818E+01 0.70973056495E+01 0.70266248762E+01 0.69751539522E+01 0.69757963820E+01
 0.70255097489E+01 0.71014105546E+01 0.71939954215E+01 0.73280159374E+01 0.74569707545E+01
 0.75451659155E+01 0.76128608769E+01 0.76334458427E+01 0.76857270627E+01 0.78629480504E+01
 0.82084664645E+01 0.86457240892E+01 0.88982843969E+01 0.89633358486E+01 0.89022295228E+01
 0.86423405000E+01 0.81889421840E+01 0.77771524275E+01 0.76366124917E+01 0.77237004792E+01
 0.78494020928E+01 0.79264891280E+01 0.79195167271E+01 0.78562858297E+01 0.78236318393E+01
 0.77200147785E+01 0.76454722557E+01 0.76146526636E+01 0.76419239671E+01 0.77192081093E+01
 0.78234801819E+01 0.78661047015E+01 0.79136547621E+01 0.79362854348E+01 0.78435874395E+01
 0.77254993888E+01 0.76334285971E+01 0.77840168988E+01 0.81853769643E+01 0.85498198869E+01
 0.87666328430E+01 0.87850117790E+01 0.87784270738E+01 0.87660777021E+01 0.85474196339E+01
 0.80883431841E+01 0.76716696567E+01 0.76113317280E+01 0.78440023953E+01 0.81352869560E+01
 0.82517934204E+01 0.82848673977E+01 0.82562837506E+01 0.80811683250E+01 0.79315347107E+01
 0.78465049627E+01 0.78519473012E+01 0.79377994946E+01 0.80788579270E+01 0.82481044506E+01
 0.82883029743E+01 0.82481025351E+01 0.81333714316E+01 0.78436064074E+01 0.76128590685E+01
 0.76726959801E+01 0.80861435465E+01 0.83894130533E+01 0.85585888028E+01 0.84617433392E+01
 0.84073090792E+01 0.84695019865E+01 0.85587858586E+01 0.83910904178E+01 0.79232501189E+01
 0.75310109331E+01 0.75478411149E+01 0.79279187610E+01 0.82537480486E+01 0.83760485900E+01
 0.82948115061E+01 0.79510444416E+01 0.76344063109E+01 0.74174764595E+01 0.73259194904E+01
 0.74065609644E+01 0.76329137942E+01 0.79642213396E+01 0.82893335647E+01 0.83818894989E+01
 0.82481280201E+01 0.79363391410E+01 0.75452033683E+01 0.75306734323E+01 0.79218543325E+01
 0.82268890109E+01 0.83605553800E+01 0.81669932391E+01 0.79759149217E+01 0.79745332380E+01
 0.81609866091E+01 0.83611376153E+01 0.82224184479E+01 0.77376875599E+01 0.73456945901E+01
 0.74650522171E+01 0.79137465984E+01 0.82845867419E+01 0.82948353176E+01 0.78261241949E+01
 0.73021604352E+01 0.69025217930E+01 0.67083857907E+01 0.67119723258E+01 0.69099649091E+01
 0.72902494126E+01 0.78287564786E+01 0.82893244642E+01 0.82883269117E+01 0.79137267954E+01
 0.74570411510E+01 0.73512260416E+01 0.77353203461E+01 0.80827719952E+01 0.82140056914E+01
 0.79087281736E+01 0.76100285395E+01 0.75115432355E+01 0.76090219919E+01 0.79170529579E+01
 0.82107895833E+01 0.80872634167E+01 0.75523637280E+01 0.71672376338E+01 0.73220477185E+01
 0.78678077633E+01 0.82509776621E+01 0.79565738339E+01 0.72930979733E+01 0.67135501002E+01
 0.63524221056E+01 0.62527547013E+01 0.63509598639E+01 0.67181287027E+01 0.72902338464E+01
 0.79641896684E+01 0.82481092961E+01 0.78661732125E+01 0.73280961471E+01 0.71669717963E+01
 0.75537904430E+01 0.79833081928E+01 0.81057428920E+01 0.77187110372E+01 0.73001694218E+01
 0.71302794379E+01 0.71367609349E+01 0.72932667726E+01 0.77189443657E+01 0.81052102814E+01
 0.79815183842E+01 0.73876956510E+01 0.69955636643E+01 0.72031975904E+01 0.78154056019E+01
 0.80832319569E+01 0.76371565072E+01 0.69030689826E+01 0.63591741696E+01 0.61125598885E+01
 0.61125176567E+01 0.63509567419E+01 0.69099481068E+01 0.76328756088E+01 0.80788445909E+01
 0.78235343599E+01 0.71940685338E+01 0.69989967378E+01 0.73829304040E+01 0.79081176222E+01
 0.80424580149E+01 0.75736519573E+01 0.70432160350E+01 0.68585268478E+01 0.68102633582E+01
 0.68592945234E+01 0.70445890470E+01 0.75740278480E+01 0.80417586739E+01 0.79029143744E+01
 0.72529733363E+01 0.68289255423E+01 0.71025652790E+01 0.77202663839E+01 0.79349445152E+01
 0.74094016728E+01 0.67114148149E+01 0.62447344304E+01 0.61125616286E+01 0.62527586198E+01
 0.67119702227E+01 0.74065399684E+01 0.79377812615E+01 0.77192443418E+01 0.71014665257E+01
 0.68347835431E+01 0.72492761688E+01 0.78592142191E+01 0.80119309012E+01 0.74625996060E+01
 0.68703220374E+01 0.66579968425E+01 0.66261322094E+01 0.66236965958E+01 0.66576952816E+01
 0.68713846830E+01 0.74637939338E+01 0.80204372733E+01 0.78534834594E+01 0.71546571889E+01
 0.67041752090E+01 0.70251401290E+01 0.76440167855E+01 0.78456295699E+01 0.73305431357E+01
 0.67114059613E+01 0.63591714216E+01 0.63524324722E+01 0.67084058264E+01 0.73259282169E+01
 0.78519371141E+01 0.76419386005E+01 0.70255440822E+01 0.67043902842E+01 0.71498367943E+01
 0.78299848716E+01 0.79963472765E+01 0.74054974006E+01 0.67006099869E+01 0.64745224383E+01
 0.64945636855E+01 0.65279332451E+01 0.64969144848E+01 0.64736154570E+01 0.66955781769E+01
 0.73981635775E+01 0.79994623708E+01 0.78285788722E+01 0.70712133256E+01 0.66302118542E+01
 0.69712121672E+01 0.76222591187E+01 0.78456269155E+01 0.74093788107E+01 0.69030532585E+01
 0.67135579910E+01 0.69025563151E+01 0.74175123951E+01 0.78465055507E+01 0.76146439374E+01
 0.69758060143E+01 0.66270213260E+01 0.70736465227E+01 0.78179661277E+01 0.79926161031E+01
 0.73516085742E+01 0.65866017116E+01 0.64143510880E+01 0.64892198882E+01 0.64999622723E+01
 0.64983776804E+01 0.64874911428E+01 0.64208289555E+01 0.65974878397E+01 0.73467965618E+01
 0.79960519903E+01 0.78180451865E+01 0.70363583825E+01 0.66005609157E+01 0.69712271030E+01
 0.76440448439E+01 0.79349387448E+01 0.76371233912E+01 0.72930890428E+01 0.73021880199E+01
 0.76344494852E+01 0.79315381250E+01 0.76454399607E+01 0.69751380053E+01 0.65992013252E+01
 0.70374446327E+01 0.78112444095E+01 0.79930729852E+01 0.73124540888E+01 0.65542052793E+01
 0.63810742502E+01 0.64106170201E+01 0.63548243676E+01 0.63000063228E+01 0.63584744982E+01
 0.64044285129E+01 0.63694435983E+01 0.65543823044E+01 0.73132443310E+01 0.79890877408E+01
 0.78160556714E+01 0.70363711233E+01 0.66302330164E+01 0.70251845434E+01 0.77203210523E+01
 0.80832341863E+01 0.79565482294E+01 0.78261255673E+01 0.79510676565E+01 0.80811609539E+01
 0.77199595668E+01 0.70265844338E+01 0.66235862549E+01 0.70401556425E+01 0.78178949427E+01
 0.79906235687E+01 0.73058602222E+01 0.65399563320E+01 0.63309919766E+01 0.63281905893E+01
 0.62288655690E+01 0.61212087953E+01 0.61138296586E+01 0.62366411332E+01 0.63381849640E+01
 0.63337094691E+01 0.65411846426E+01 0.73071334938E+01 0.79890755005E+01 0.78180527986E+01
 0.70712515257E+01 0.67042178403E+01 0.71026360677E+01 0.78154817057E+01 0.82509994346E+01
 0.82948262669E+01 0.82948072088E+01 0.82562533488E+01 0.78235573177E+01 0.70972429390E+01
 0.67077457905E+01 0.70742999129E+01 0.78269665887E+01 0.79945755156E+01 0.73128431937E+01
 0.65413696107E+01 0.63217165242E+01 0.62987966075E+01 0.61839834823E+01 0.60177115592E+01
 0.59470510354E+01 0.60158576457E+01 0.61695349281E+01 0.62996129272E+01 0.63159016694E+01
 0.65411829169E+01 0.73132262987E+01 0.79960165059E+01 0.78285940878E+01 0.71547177793E+01
 0.68289929827E+01 0.72032901209E+01 0.78679008370E+01 0.82846251772E+01 0.83760435424E+01
 0.82848226558E+01 0.78561987420E+01 0.72018218771E+01 0.68329414883E+01 0.71492861350E+01
 0.78577649148E+01 0.80010768242E+01 0.73489017146E+01 0.65546370331E+01 0.63296444927E+01
 0.62968798734E+01 0.61552794154E+01 0.59595342871E+01 0.58090676149E+01 0.58147513776E+01
 0.59698476192E+01 0.61580188923E+01 0.62996171343E+01 0.63337086426E+01 0.65543796633E+01
 0.73467647209E+01 0.79994142232E+01 0.78535043925E+01 0.72530530838E+01 0.69956508525E+01
 0.73221518454E+01 0.79138433972E+01 0.82537852296E+01 0.82517589962E+01 0.79194287466E+01
 0.73312887858E+01 0.69911853417E+01 0.72527269718E+01 0.79004449098E+01 0.80184310946E+01
 0.73945291040E+01 0.65962060113E+01 0.63721961064E+01 0.63403201229E+01 0.61744019109E+01
 0.59698433864E+01 0.57757315124E+01 0.57083213783E+01 0.57619033245E+01 0.59698514693E+01
 0.61695472291E+01 0.63381930560E+01 0.63694402310E+01 0.65974832766E+01 0.73981266186E+01
 0.80203868462E+01 0.79029440949E+01 0.73877874972E+01 0.71673330535E+01 0.74651472011E+01
 0.79279940020E+01 0.81352928435E+01 0.79264268759E+01 0.74586400193E+01 0.71628420243E+01
 0.73926093044E+01 0.79791653915E+01 0.80439144740E+01 0.74664819546E+01 0.66994551689E+01
 0.64182727002E+01 0.64043754709E+01 0.62308856581E+01 0.60156195689E+01 0.58088861296E+01
 0.57005097660E+01 0.57083193954E+01 0.58147516524E+01 0.60158663639E+01 0.62366582864E+01
 0.64044353873E+01 0.64208223118E+01 0.66955755832E+01 0.74637594538E+01 0.80417143998E+01
 0.79815538476E+01 0.75524546663E+01 0.73457693382E+01 0.75478977699E+01 0.78440332635E+01
 0.78493850488E+01 0.75474314272E+01 0.73516830325E+01 0.75530601157E+01 0.80882689869E+01
 0.81055120157E+01 0.75718209084E+01 0.68666931420E+01 0.64749356368E+01 0.64859459193E+01
 0.63633026424E+01 0.61137318353E+01 0.59544621477E+01 0.58088862770E+01 0.57757274665E+01
 0.58090605864E+01 0.59470463428E+01 0.61138344076E+01 0.63584856397E+01 0.64874905362E+01
 0.64736074048E+01 0.68713844187E+01 0.75739980558E+01 0.81051748616E+01 0.80873001117E+01
 0.77377554722E+01 0.75310386173E+01 0.76113358774E+01 0.77237052259E+01 0.76079977227E+01
 0.75313378833E+01 0.77328831043E+01 0.82254541416E+01 0.82096851795E+01 0.77187640921E+01
 0.70487722026E+01 0.66574470227E+01 0.64991451641E+01 0.64954902388E+01 0.63006693639E+01
 0.61137385029E+01 0.60156271938E+01 0.59698428475E+01 0.59595235918E+01 0.60176940450E+01
 0.61211962653E+01 0.63000051400E+01 0.64983812581E+01 0.64969070686E+01 0.66576902834E+01
 0.70445908068E+01 0.77189163739E+01 0.82107578082E+01 0.82224393136E+01 0.79232737660E+01
 0.76716463479E+01 0.76365936289E+01 0.76364257759E+01 0.76733323637E+01 0.79239288170E+01
 0.83912181689E+01 0.83584472574E+01 0.79184032828E+01 0.72925624990E+01 0.68597678804E+01
 0.66203930481E+01 0.65313840699E+01 0.64954941197E+01 0.63633153603E+01 0.62309027656E+01
 0.61744119357E+01 0.61552745900E+01 0.61839654348E+01 0.62288442182E+01 0.63548122139E+01
 0.64999608090E+01 0.65279318903E+01 0.66236910826E+01 0.68592950617E+01 0.72932661417E+01
 0.79170206962E+01 0.83610990329E+01 0.83910862344E+01 0.80883289120E+01 0.77771139691E+01
 0.76900623483E+01 0.77773626204E+01 0.80866824561E+01 0.85493492076E+01 0.85564593309E+01
 0.81640220483E+01 0.76087778086E+01 0.71304647995E+01 0.68161170441E+01 0.66203909765E+01
 0.64991421999E+01 0.64859493583E+01 0.64043851895E+01 0.63403301783E+01 0.62968843735E+01
 0.62987931853E+01 0.63281835017E+01 0.64106122112E+01 0.64892208233E+01 0.64945676403E+01
 0.66261323700E+01 0.68102618063E+01 0.71367632806E+01 0.76090132668E+01 0.81609448793E+01
 0.85587370164E+01 0.85473969663E+01 0.81889236039E+01 0.78641106695E+01 0.78627833238E+01
 0.81892855445E+01 0.86413015446E+01 0.87657978518E+01 0.84722243794E+01 0.79710745066E+01
 0.75189035697E+01 0.71304670841E+01 0.68597707945E+01 0.66574461227E+01 0.64749305544E+01
 0.64182677383E+01 0.63721928304E+01 0.63296430513E+01 0.63217168718E+01 0.63309931569E+01
 0.63810762049E+01 0.64143530729E+01 0.64745242449E+01 0.66579956768E+01 0.68585232339E+01
 0.71302798508E+01 0.75115472955E+01 0.79745222152E+01 0.84694588275E+01 0.87660270019E+01
 0.86423272338E+01 0.82114363529E+01 0.79743065121E+01 0.82129754990E+01 0.85695118086E+01
 0.88996313606E+01 0.87800986504E+01 0.84041972493E+01 0.79710657154E+01 0.76087736488E+01
 0.72925652719E+01 0.70487747781E+01 0.68666897454E+01 0.66994451470E+01 0.65961935557E+01
 0.65546257873E+01 0.65413621210E+01 0.65399530656E+01 0.65542044921E+01 0.65866007232E+01
 0.67006072026E+01 0.68703156103E+01 0.70432104047E+01 0.73001717892E+01 0.76100440717E+01
 0.79759361576E+01 0.84073127343E+01 0.87783971751E+01 0.89022022423E+01 0.85690523278E+01
 0.81485487895E+01 0.81471965310E+01 0.82921203848E+01 0.87667183914E+01 0.89683472482E+01
 0.87800795934E+01 0.84721978570E+01 0.81639990089E+01 0.79183868047E+01 0.77187450099E+01
 0.75717924169E+01 0.74664418368E+01 0.73944831747E+01 0.73488602460E+01 0.73128170968E+01
 0.73058541651E+01 0.73124676956E+01 0.73516353405E+01 0.74055273467E+01 0.74626260801E+01
 0.75736748675E+01 0.77187371517E+01 0.79087649239E+01 0.81670447023E+01 0.84617945846E+01
 0.87850379999E+01 0.89633257439E+01 0.87657764575E+01 0.82923722149E+01 0.80468688925E+01
 0.79798000645E+01 0.83335239687E+01 0.87667259854E+01 0.88996170814E+01 0.87657692726E+01
 0.85564380334E+01 0.83584344104E+01 0.82096709801E+01 0.81054842565E+01 0.80438691582E+01
 0.80183740148E+01 0.80010206037E+01 0.79945323846E+01 0.79906041555E+01 0.79930793583E+01
 0.79926442137E+01 0.79963869702E+01 0.80119717451E+01 0.80424934609E+01 0.81057752486E+01
 0.82140439253E+01 0.83606072241E+01 0.85586521179E+01 0.87666876989E+01 0.88982988886E+01
 0.87727891622E+01 0.83331115003E+01 0.79797951440E+01 0.85687867303E+01 0.86973229549E+01
 0.88921370306E+01 0.88783710378E+01 0.86422576777E+01 0.83379712010E+01 0.80472509429E+01
 0.78086075103E+01 0.76134261441E+01 0.74683386461E+01 0.73632103755E+01 0.72811656590E+01
 0.72318905640E+01 0.72044359453E+01 0.71889790609E+01 0.71997256614E+01 0.72259846462E+01
 0.72842087245E+01 0.73610368213E+01 0.74714023605E+01 0.76239293070E+01 0.78109698886E+01
 0.80569516026E+01 0.83365354832E+01 0.86461933626E+01 0.88789347434E+01 0.88929327030E+01
 0.86968681074E+01 0.86968712661E+01 0.86977556339E+01 0.87132316068E+01 0.87527460268E+01
 0.87624360420E+01 0.87000583145E+01 0.85649391626E+01 0.84059287931E+01 0.82668845200E+01
 0.81488330004E+01 0.80680620598E+01 0.80228552547E+01 0.79893660029E+01 0.79732042361E+01
 0.79763254222E+01 0.79757593603E+01 0.79855104378E+01 0.79847038566E+01 0.80192157366E+01
 0.80716663970E+01 0.81436269835E+01 0.82614234440E+01 0.84002955056E+01 0.85649151589E+01
 0.87001671501E+01 0.87656281212E+01 0.87514251194E+01 0.87126178632E+01 0.88929354008E+01