<?xml version="1.0" encoding="ISO-8859-1"?>
<modeling>
 <generator>
  <i name="program" type="string">vasp </i>
  <i name="version" type="string">5.3.5  </i>
  <i name="subversion" type="string">31Mar14 (build Jul 02 2019 13:03:44) complex                          parallel </i>
  <i name="platform" type="string">LinuxIFC </i>
  <i name="date" type="string">2019 07 03 </i>
  <i name="time" type="string">14:30:01 </i>
 </generator>
 <incar>
  <i type="string" name="SYSTEM"> 2H-MoS2</i>
  <i type="string" name="PREC">normal</i>
  <i type="string" name="ALGO"> GW0</i>
  <i name="EDIFF">      0.00010000</i>
  <i type="int" name="NBANDS">   128</i>
  <i type="int" name="NEDOS">  3000</i>
  <i type="int" name="ISMEAR">     0</i>
  <i name="SIGMA">      0.05000000</i>
  <i type="logical" name="LVTOT"> T  </i>
  <i type="int" name="NOMEGA">    50</i>
  <i type="logical" name="LSPECTRAL"> T  </i>
  <i type="int" name="MAXMEM">  8000</i>
  <i type="logical" name="LWANNIER90"> T  </i>
 </incar>
 <kpoints>
  <generation param="Gamma">
   <v type="int" name="divisions">       5        5        5 </v>
   <v name="usershift">      0.00000000       0.00000000       0.00000000 </v>
   <v name="genvec1">      0.20000000       0.00000000       0.00000000 </v>
   <v name="genvec2">     -0.00000000       0.20000000       0.00000000 </v>
   <v name="genvec3">      0.00000000       0.00000000       0.20000000 </v>
   <v name="shift">      0.00000000       0.00000000       0.00000000 </v>
  </generation>
  <varray name="kpointlist" >
   <v>       0.00000000       0.00000000       0.00000000 </v>
   <v>       0.20000000       0.00000000       0.00000000 </v>
   <v>       0.40000000       0.00000000       0.00000000 </v>
   <v>       0.20000000       0.20000000       0.00000000 </v>
   <v>       0.40000000       0.20000000       0.00000000 </v>
   <v>       0.00000000       0.00000000       0.20000000 </v>
   <v>       0.20000000       0.00000000       0.20000000 </v>
   <v>       0.40000000       0.00000000       0.20000000 </v>
   <v>       0.20000000       0.20000000       0.20000000 </v>
   <v>       0.40000000       0.20000000       0.20000000 </v>
   <v>       0.00000000       0.00000000       0.40000000 </v>
   <v>       0.20000000       0.00000000       0.40000000 </v>
   <v>       0.40000000       0.00000000       0.40000000 </v>
   <v>       0.20000000       0.20000000       0.40000000 </v>
   <v>       0.40000000       0.20000000       0.40000000 </v>
  </varray>
  <varray name="weights" >
   <v>       0.00800000 </v>
   <v>       0.04800000 </v>
   <v>       0.04800000 </v>
   <v>       0.04800000 </v>
   <v>       0.04800000 </v>
   <v>       0.01600000 </v>
   <v>       0.09600000 </v>
   <v>       0.09600000 </v>
   <v>       0.09600000 </v>
   <v>       0.09600000 </v>
   <v>       0.01600000 </v>
   <v>       0.09600000 </v>
   <v>       0.09600000 </v>
   <v>       0.09600000 </v>
   <v>       0.09600000 </v>
  </varray>
 </kpoints>
 <parameters>
  <separator name="general" >
   <i type="string" name="SYSTEM">2H-MoS2</i>
   <i type="logical" name="LCOMPAT"> F  </i>
  </separator>
  <separator name="electronic" >
   <i type="string" name="PREC">normal</i>
   <i name="ENMAX">    344.91400000</i>
   <i name="ENAUG">    964.74100000</i>
   <i name="EDIFF">      0.00010000</i>
   <i type="int" name="IALGO">    38</i>
   <i type="int" name="IWAVPR">    10</i>
   <i type="int" name="NBANDS">   128</i>
   <i name="NELECT">     52.00000000</i>
   <i type="int" name="TURBO">     0</i>
   <i type="int" name="IRESTART">     0</i>
   <i type="int" name="NREBOOT">     0</i>
   <i type="int" name="NMIN">     0</i>
   <i name="EREF">      0.00000000</i>
   <separator name="electronic smearing" >
    <i type="int" name="ISMEAR">     0</i>
    <i name="SIGMA">      0.05000000</i>
    <i name="KSPACING">      0.50000000</i>
    <i type="logical" name="KGAMMA"> T  </i>
   </separator>
   <separator name="electronic projectors" >
    <i type="logical" name="LREAL"> F  </i>
    <v name="ROPT">      0.00000000      0.00000000</v>
    <i type="int" name="LMAXPAW">  -100</i>
    <i type="int" name="LMAXMIX">     2</i>
    <i type="logical" name="NLSPLINE"> F  </i>
   </separator>
   <separator name="electronic startup" >
    <i type="int" name="ISTART">     1</i>
    <i type="int" name="ICHARG">     0</i>
    <i type="int" name="INIWAV">     1</i>
   </separator>
   <separator name="electronic spin" >
    <i type="int" name="ISPIN">     1</i>
    <i type="logical" name="LNONCOLLINEAR"> F  </i>
    <v name="MAGMOM">      1.00000000      1.00000000      1.00000000      1.00000000      1.00000000      1.00000000</v>
    <i name="NUPDOWN">     -1.00000000</i>
    <i type="logical" name="LSORBIT"> F  </i>
    <v name="SAXIS">      0.00000000      0.00000000      1.00000000</v>
    <i type="logical" name="LSPIRAL"> F  </i>
    <v name="QSPIRAL">      0.00000000      0.00000000      0.00000000</v>
    <i type="logical" name="LZEROZ"> F  </i>
   </separator>
   <separator name="electronic exchange-correlation" >
    <i type="logical" name="LASPH"> F  </i>
    <i type="logical" name="LMETAGGA"> F  </i>
   </separator>
   <separator name="electronic convergence" >
    <i type="int" name="NELM">    60</i>
    <i type="int" name="NELMDL">     0</i>
    <i type="int" name="NELMIN">     2</i>
    <i name="ENINI">    344.91400000</i>
    <separator name="electronic convergence detail" >
     <i type="logical" name="LDIAG"> T  </i>
     <i type="logical" name="LSUBROT"> F  </i>
     <i name="WEIMIN">      0.00000000</i>
     <i name="EBREAK">      0.00000020</i>
     <i name="DEPER">      0.30000000</i>
     <i type="int" name="NRMM">     4</i>
     <i name="TIME">      0.40000000</i>
    </separator>
   </separator>
   <separator name="electronic mixer" >
    <i name="AMIX">      0.40000000</i>
    <i name="BMIX">      1.00000000</i>
    <i name="AMIN">      0.10000000</i>
    <i name="AMIX_MAG">      1.60000000</i>
    <i name="BMIX_MAG">      1.00000000</i>
    <separator name="electronic mixer details" >
     <i type="int" name="IMIX">     1</i>
     <i type="int" name="MAXMIX">   -45</i>
     <i name="WC">    100.00000000</i>
     <i type="int" name="INIMIX">     1</i>
     <i type="int" name="MIXPRE">     1</i>
     <i type="int" name="MREMOVE">     5</i>
    </separator>
   </separator>
   <separator name="electronic dipolcorrection" >
    <i type="logical" name="LDIPOL"> F  </i>
    <i type="logical" name="LMONO"> F  </i>
    <i type="int" name="IDIPOL">     0</i>
    <i name="EPSILON">      1.00000000</i>
    <v name="DIPOL">   -100.00000000   -100.00000000   -100.00000000</v>
    <i name="EFIELD">      0.00000000</i>
   </separator>
  </separator>
  <separator name="grids" >
   <i type="int" name="NGX">    14</i>
   <i type="int" name="NGY">    14</i>
   <i type="int" name="NGZ">    64</i>
   <i type="int" name="NGXF">    28</i>
   <i type="int" name="NGYF">    28</i>
   <i type="int" name="NGZF">   128</i>
   <i type="logical" name="ADDGRID"> F  </i>
  </separator>
  <separator name="ionic" >
   <i type="int" name="NSW">     0</i>
   <i type="int" name="IBRION">    -1</i>
   <i type="int" name="ISIF">     0</i>
   <i name="PSTRESS">      0.00000000</i>
   <i name="EDIFFG">      0.00100000</i>
   <i type="int" name="NFREE">     0</i>
   <i name="POTIM">      0.50000000</i>
   <i name="SMASS">     -3.00000000</i>
   <i name="SCALEE">      1.00000000</i>
  </separator>
  <separator name="ionic md" >
   <i name="TEBEG">      0.00010000</i>
   <i name="TEEND">      0.00010000</i>
   <i type="int" name="NBLOCK">     1</i>
   <i type="int" name="KBLOCK">     1</i>
   <i type="int" name="NPACO">   256</i>
   <i name="APACO">     16.00000000</i>
  </separator>
  <separator name="symmetry" >
   <i type="int" name="ISYM">     3</i>
   <i name="SYMPREC">      0.00001000</i>
  </separator>
  <separator name="dos" >
   <i type="logical" name="LORBIT"> F  </i>
   <v name="RWIGS">     -1.00000000     -1.00000000</v>
   <i type="int" name="NEDOS">  3000</i>
   <i name="EMIN">     10.00000000</i>
   <i name="EMAX">    -10.00000000</i>
   <i name="EFERMI">      0.00000000</i>
  </separator>
  <separator name="writing" >
   <i type="int" name="NWRITE">     2</i>
   <i type="logical" name="LWAVE"> T  </i>
   <i type="logical" name="LCHARG"> T  </i>
   <i type="logical" name="LPARD"> F  </i>
   <i type="logical" name="LVTOT"> T  </i>
   <i type="logical" name="LVHAR"> F  </i>
   <i type="logical" name="LELF"> F  </i>
   <i type="logical" name="LOPTICS"> F  </i>
   <v name="STM">      0.00000000      0.00000000      0.00000000      0.00000000      0.00000000      0.00000000      0.00000000</v>
  </separator>
  <separator name="performance" >
   <i type="int" name="NPAR">     2</i>
   <i type="int" name="NSIM">     4</i>
   <i type="int" name="NBLK">    -1</i>
   <i type="logical" name="LPLANE"> T  </i>
   <i type="logical" name="LSCALAPACK"> T  </i>
   <i type="logical" name="LSCAAWARE"> F  </i>
   <i type="logical" name="LSCALU"> F  </i>
   <i type="logical" name="LASYNC"> F  </i>
   <i type="logical" name="LORBITALREAL"> F  </i>
  </separator>
  <separator name="miscellaneous" >
   <i type="int" name="IDIOT">     3</i>
   <i type="logical" name="LMUSIC"> F  </i>
   <v name="POMASS">     95.94000000     32.06600000</v>
   <v name="DARWINR">      0.00000000      0.00000000</v>
   <v name="DARWINV">      1.00000000      1.00000000</v>
   <i type="logical" name="LCORR"> T  </i>
  </separator>
  <i type="logical" name="GGA_COMPAT"> T  </i>
  <i type="logical" name="LBERRY"> F  </i>
  <i type="int" name="ICORELEVEL">     0</i>
  <i type="logical" name="LDAU"> F  </i>
  <i type="int" name="I_CONSTRAINED_M">     0</i>
  <separator name="electronic exchange-correlation" >
   <i type="string" name="GGA">--</i>
   <i type="int" name="VOSKOWN">     0</i>
   <i type="logical" name="LHFCALC"> T  </i>
   <i type="string" name="PRECFOCK">normal</i>
   <i type="logical" name="LSYMGRAD"> F  </i>
   <i type="logical" name="LHFONE"> F  </i>
   <i type="logical" name="LRHFCALC"> F  </i>
   <i type="logical" name="LTHOMAS"> F  </i>
   <i type="logical" name="LMODELHF"> F  </i>
   <i name="ENCUT4O">     -1.00000000</i>
   <i type="int" name="EXXOEP">     0</i>
   <i type="int" name="FOURORBIT">     0</i>
   <i name="AEXX">      1.00000000</i>
   <i name="HFALPHA">     -1.00000000</i>
   <i name="MCALPHA">      0.00000000</i>
   <i name="ALDAX">      0.00000000</i>
   <i name="AGGAX">      0.00000000</i>
   <i name="ALDAC">      0.00000000</i>
   <i name="AGGAC">      0.00000000</i>
   <i type="int" name="NKREDX">     1</i>
   <i type="int" name="NKREDY">     1</i>
   <i type="int" name="NKREDZ">     1</i>
   <i type="logical" name="SHIFTRED"> F  </i>
   <i type="logical" name="ODDONLY"> F  </i>
   <i type="logical" name="EVENONLY"> F  </i>
   <i type="int" name="LMAXFOCK">     4</i>
   <i type="int" name="NMAXFOCKAE">     1</i>
   <i type="logical" name="LFOCKAEDFT"> F  </i>
   <i name="HFSCREEN">      0.00000000</i>
   <i name="HFSCREENC">      0.00000000</i>
   <i type="int" name="NBANDSGWLOW">     1</i>
  </separator>
  <separator name="vdW DFT" >
   <i type="logical" name="LUSE_VDW"> F  </i>
   <i name="Zab_VDW">     -0.84910000</i>
   <i name="PARAM1">      0.12340000</i>
   <i name="PARAM2">      1.00000000</i>
   <i name="PARAM3">      0.00000000</i>
  </separator>
  <separator name="model GW" >
   <i type="int" name="MODEL_GW">     0</i>
   <i name="MODEL_EPS0">     12.03201675</i>
   <i name="MODEL_ALPHA">      1.00000000</i>
  </separator>
  <separator name="linear response parameters" >
   <i type="logical" name="LEPSILON"> F  </i>
   <i type="logical" name="LRPA"> F  </i>
   <i type="logical" name="LNABLA"> F  </i>
   <i type="logical" name="LVEL"> F  </i>
   <i type="int" name="KINTER">     0</i>
   <i name="CSHIFT">      0.10000000</i>
   <i name="OMEGAMAX">     -1.00000000</i>
   <i name="DEG_THRESHOLD">      0.00200000</i>
  </separator>
  <separator name="orbital magnetization" >
   <i type="logical" name="NUCIND"> F  </i>
   <v name="MAGPOS">      0.00000000      0.00000000      0.00000000</v>
   <i type="logical" name="LNICSALL"> T  </i>
   <i type="logical" name="ORBITALMAG"> F  </i>
   <i type="logical" name="LMAGBLOCH"> F  </i>
   <i type="logical" name="LCHIMAG"> F  </i>
   <i type="logical" name="LGAUGE"> T  </i>
   <i type="int" name="MAGATOM">     0</i>
   <v name="MAGDIPOL">      0.00000000      0.00000000      0.00000000</v>
   <v name="AVECCONST">      0.00000000      0.00000000      0.00000000</v>
  </separator>
  <separator name="response functions" >
   <i type="logical" name="LADDER"> F  </i>
   <i type="logical" name="LFXC"> F  </i>
   <i type="logical" name="LHARTREE"> T  </i>
   <i type="int" name="IBSE">     0</i>
   <i type="logical" name="LTCTE"> F  </i>
   <i type="logical" name="LTETE"> F  </i>
   <i type="logical" name="LTRIPLET"> F  </i>
   <i type="logical" name="LFXCEPS"> F  </i>
   <i type="logical" name="LFXHEG"> F  </i>
   <i type="logical" name="L2ORDER"> F  </i>
   <i type="logical" name="LUSEW"> F  </i>
   <i name="ENCUTGW">    229.94266667</i>
   <i name="ENCUTGWSOFT">     -2.00000000</i>
   <i name="ENCUTLF">     -1.00000000</i>
   <i type="int" name="LMAXMP2">    -1</i>
   <i name="SCISSOR">      0.00000000</i>
   <i type="int" name="NOMEGA">    50</i>
   <i type="int" name="NOMEGAR">    50</i>
   <i type="int" name="NBANDSGW">    -1</i>
   <i type="int" name="NBANDSO">    -1</i>
   <i type="int" name="NBANDSV">    -1</i>
   <i type="int" name="NELM">     1</i>
   <i type="int" name="DIM">     3</i>
   <i type="int" name="ANTIRES">     0</i>
   <i name="OMEGAMAX">    -30.00000000</i>
   <i name="OMEGAMIN">    -30.00000000</i>
   <i name="OMEGATL">   -200.00000000</i>
   <i type="int" name="OMEGAGRID">     0</i>
   <i name="CSHIFT">     -0.10000000</i>
   <i type="logical" name="SELFENERGY"> F  </i>
   <i type="logical" name="LSPECTRAL"> T  </i>
   <i type="logical" name="ODDONLYGW"> F  </i>
   <i type="logical" name="EVENONLYGW"> F  </i>
   <i type="int" name="NKREDLFX">     1</i>
   <i type="int" name="NKREDLFY">     1</i>
   <i type="int" name="NKREDLFZ">     1</i>
   <i type="int" name="MAXMEM">  8000</i>
   <i type="int" name="TELESCOPE">     0</i>
   <i type="int" name="TAUPAR">     1</i>
  </separator>
  <separator name="External order field" >
   <i name="OFIELD_KAPPA">      0.00000000</i>
   <v name="OFIELD_K">      0.00000000      0.00000000      0.00000000</v>
   <i name="OFIELD_Q6_NEAR">      0.00000000</i>
   <i name="OFIELD_Q6_FAR">      0.00000000</i>
   <i name="OFIELD_A">      0.00000000</i>
  </separator>
 </parameters>
 <atominfo>
  <atoms>       6 </atoms>
  <types>       2 </types>
  <array name="atoms" >
   <dimension dim="1">ion</dimension>
   <field type="string">element</field>
   <field type="int">atomtype</field>
   <set>
    <rc><c>Mo</c><c>   1</c></rc>
    <rc><c>Mo</c><c>   1</c></rc>
    <rc><c>S </c><c>   2</c></rc>
    <rc><c>S </c><c>   2</c></rc>
    <rc><c>S </c><c>   2</c></rc>
    <rc><c>S </c><c>   2</c></rc>
   </set>
  </array>
  <array name="atomtypes" >
   <dimension dim="1">type</dimension>
   <field type="int">atomspertype</field>
   <field type="string">element</field>
   <field>mass</field>
   <field>valence</field>
   <field type="string">pseudopotential</field>
   <set>
    <rc><c>   2</c><c>Mo</c><c>     95.94000000</c><c>     14.00000000</c><c>  PAW_PBE Mo_sv_GW 05Dec2013            </c></rc>
    <rc><c>   4</c><c>S </c><c>     32.06600000</c><c>      6.00000000</c><c>  PAW_PBE S_GW 19Mar2012                </c></rc>
   </set>
  </array>
 </atominfo>
 <structure name="initialpos" >
  <crystal>
   <varray name="basis" >
    <v>       3.17926782      -0.00000000       0.00000000 </v>
    <v>      -1.58963391       2.75332600       0.00000000 </v>
    <v>       0.00000000       0.00000000      13.74528273 </v>
   </varray>
   <i name="volume">    120.32016749 </i>
   <varray name="rec_basis" >
    <v>       0.31453783       0.18159855       0.00000000 </v>
    <v>       0.00000000       0.36319709       0.00000000 </v>
    <v>       0.00000000       0.00000000       0.07275223 </v>
   </varray>
  </crystal>
  <varray name="positions" >
   <v>       0.66666700       0.33333300       0.25000000 </v>
   <v>       0.33333300       0.66666700       0.75000000 </v>
   <v>       0.33333300       0.66666700       0.13608426 </v>
   <v>       0.66666700       0.33333300       0.63608426 </v>
   <v>       0.33333300       0.66666700       0.36391574 </v>
   <v>       0.66666700       0.33333300       0.86391574 </v>
  </varray>
 </structure>
 <kpoints>
  <generation param="Gamma">
   <v type="int" name="divisions">       5        5        5 </v>
   <v name="usershift">      0.00000000       0.00000000       0.00000000 </v>
   <v name="genvec1">      0.20000000       0.00000000       0.00000000 </v>
   <v name="genvec2">     -0.00000000       0.20000000       0.00000000 </v>
   <v name="genvec3">      0.00000000       0.00000000       0.20000000 </v>
   <v name="shift">      0.00000000       0.00000000       0.00000000 </v>
  </generation>
  <varray name="kpointlist" >
   <v>       0.00000000       0.00000000       0.00000000 </v>
   <v>       0.20000000       0.00000000       0.00000000 </v>
   <v>       0.40000000       0.00000000       0.00000000 </v>
   <v>      -0.40000000       0.00000000       0.00000000 </v>
   <v>      -0.20000000       0.00000000       0.00000000 </v>
   <v>       0.00000000       0.20000000       0.00000000 </v>
   <v>       0.20000000       0.20000000       0.00000000 </v>
   <v>       0.40000000       0.20000000       0.00000000 </v>
   <v>      -0.40000000       0.20000000       0.00000000 </v>
   <v>      -0.20000000       0.20000000       0.00000000 </v>
   <v>       0.00000000       0.40000000       0.00000000 </v>
   <v>       0.20000000       0.40000000       0.00000000 </v>
   <v>       0.40000000       0.40000000       0.00000000 </v>
   <v>      -0.40000000       0.40000000       0.00000000 </v>
   <v>      -0.20000000       0.40000000       0.00000000 </v>
   <v>       0.00000000      -0.40000000       0.00000000 </v>
   <v>       0.20000000      -0.40000000       0.00000000 </v>
   <v>       0.40000000      -0.40000000       0.00000000 </v>
   <v>      -0.40000000      -0.40000000       0.00000000 </v>
   <v>      -0.20000000      -0.40000000       0.00000000 </v>
   <v>       0.00000000      -0.20000000       0.00000000 </v>
   <v>       0.20000000      -0.20000000       0.00000000 </v>
   <v>       0.40000000      -0.20000000       0.00000000 </v>
   <v>      -0.40000000      -0.20000000       0.00000000 </v>
   <v>      -0.20000000      -0.20000000       0.00000000 </v>
   <v>       0.00000000       0.00000000       0.20000000 </v>
   <v>       0.20000000       0.00000000       0.20000000 </v>
   <v>       0.40000000       0.00000000       0.20000000 </v>
   <v>      -0.40000000       0.00000000       0.20000000 </v>
   <v>      -0.20000000       0.00000000       0.20000000 </v>
   <v>       0.00000000       0.20000000       0.20000000 </v>
   <v>       0.20000000       0.20000000       0.20000000 </v>
   <v>       0.40000000       0.20000000       0.20000000 </v>
   <v>      -0.40000000       0.20000000       0.20000000 </v>
   <v>      -0.20000000       0.20000000       0.20000000 </v>
   <v>       0.00000000       0.40000000       0.20000000 </v>
   <v>       0.20000000       0.40000000       0.20000000 </v>
   <v>       0.40000000       0.40000000       0.20000000 </v>
   <v>      -0.40000000       0.40000000       0.20000000 </v>
   <v>      -0.20000000       0.40000000       0.20000000 </v>
   <v>       0.00000000      -0.40000000       0.20000000 </v>
   <v>       0.20000000      -0.40000000       0.20000000 </v>
   <v>       0.40000000      -0.40000000       0.20000000 </v>
   <v>      -0.40000000      -0.40000000       0.20000000 </v>
   <v>      -0.20000000      -0.40000000       0.20000000 </v>
   <v>       0.00000000      -0.20000000       0.20000000 </v>
   <v>       0.20000000      -0.20000000       0.20000000 </v>
   <v>       0.40000000      -0.20000000       0.20000000 </v>
   <v>      -0.40000000      -0.20000000       0.20000000 </v>
   <v>      -0.20000000      -0.20000000       0.20000000 </v>
   <v>       0.00000000       0.00000000       0.40000000 </v>
   <v>       0.20000000       0.00000000       0.40000000 </v>
   <v>       0.40000000       0.00000000       0.40000000 </v>
   <v>      -0.40000000       0.00000000       0.40000000 </v>
   <v>      -0.20000000       0.00000000       0.40000000 </v>
   <v>       0.00000000       0.20000000       0.40000000 </v>
   <v>       0.20000000       0.20000000       0.40000000 </v>
   <v>       0.40000000       0.20000000       0.40000000 </v>
   <v>      -0.40000000       0.20000000       0.40000000 </v>
   <v>      -0.20000000       0.20000000       0.40000000 </v>
   <v>       0.00000000       0.40000000       0.40000000 </v>
   <v>       0.20000000       0.40000000       0.40000000 </v>
   <v>       0.40000000       0.40000000       0.40000000 </v>
   <v>      -0.40000000       0.40000000       0.40000000 </v>
   <v>      -0.20000000       0.40000000       0.40000000 </v>
   <v>       0.00000000      -0.40000000       0.40000000 </v>
   <v>       0.20000000      -0.40000000       0.40000000 </v>
   <v>       0.40000000      -0.40000000       0.40000000 </v>
   <v>      -0.40000000      -0.40000000       0.40000000 </v>
   <v>      -0.20000000      -0.40000000       0.40000000 </v>
   <v>       0.00000000      -0.20000000       0.40000000 </v>
   <v>       0.20000000      -0.20000000       0.40000000 </v>
   <v>       0.40000000      -0.20000000       0.40000000 </v>
   <v>      -0.40000000      -0.20000000       0.40000000 </v>
   <v>      -0.20000000      -0.20000000       0.40000000 </v>
   <v>       0.00000000       0.00000000      -0.40000000 </v>
   <v>       0.20000000       0.00000000      -0.40000000 </v>
   <v>       0.40000000       0.00000000      -0.40000000 </v>
   <v>      -0.40000000       0.00000000      -0.40000000 </v>
   <v>      -0.20000000       0.00000000      -0.40000000 </v>
   <v>       0.00000000       0.20000000      -0.40000000 </v>
   <v>       0.20000000       0.20000000      -0.40000000 </v>
   <v>       0.40000000       0.20000000      -0.40000000 </v>
   <v>      -0.40000000       0.20000000      -0.40000000 </v>
   <v>      -0.20000000       0.20000000      -0.40000000 </v>
   <v>       0.00000000       0.40000000      -0.40000000 </v>
   <v>       0.20000000       0.40000000      -0.40000000 </v>
   <v>       0.40000000       0.40000000      -0.40000000 </v>
   <v>      -0.40000000       0.40000000      -0.40000000 </v>
   <v>      -0.20000000       0.40000000      -0.40000000 </v>
   <v>       0.00000000      -0.40000000      -0.40000000 </v>
   <v>       0.20000000      -0.40000000      -0.40000000 </v>
   <v>       0.40000000      -0.40000000      -0.40000000 </v>
   <v>      -0.40000000      -0.40000000      -0.40000000 </v>
   <v>      -0.20000000      -0.40000000      -0.40000000 </v>
   <v>       0.00000000      -0.20000000      -0.40000000 </v>
   <v>       0.20000000      -0.20000000      -0.40000000 </v>
   <v>       0.40000000      -0.20000000      -0.40000000 </v>
   <v>      -0.40000000      -0.20000000      -0.40000000 </v>
   <v>      -0.20000000      -0.20000000      -0.40000000 </v>
   <v>       0.00000000       0.00000000      -0.20000000 </v>
   <v>       0.20000000       0.00000000      -0.20000000 </v>
   <v>       0.40000000       0.00000000      -0.20000000 </v>
   <v>      -0.40000000       0.00000000      -0.20000000 </v>
   <v>      -0.20000000       0.00000000      -0.20000000 </v>
   <v>       0.00000000       0.20000000      -0.20000000 </v>
   <v>       0.20000000       0.20000000      -0.20000000 </v>
   <v>       0.40000000       0.20000000      -0.20000000 </v>
   <v>      -0.40000000       0.20000000      -0.20000000 </v>
   <v>      -0.20000000       0.20000000      -0.20000000 </v>
   <v>       0.00000000       0.40000000      -0.20000000 </v>
   <v>       0.20000000       0.40000000      -0.20000000 </v>
   <v>       0.40000000       0.40000000      -0.20000000 </v>
   <v>      -0.40000000       0.40000000      -0.20000000 </v>
   <v>      -0.20000000       0.40000000      -0.20000000 </v>
   <v>       0.00000000      -0.40000000      -0.20000000 </v>
   <v>       0.20000000      -0.40000000      -0.20000000 </v>
   <v>       0.40000000      -0.40000000      -0.20000000 </v>
   <v>      -0.40000000      -0.40000000      -0.20000000 </v>
   <v>      -0.20000000      -0.40000000      -0.20000000 </v>
   <v>       0.00000000      -0.20000000      -0.20000000 </v>
   <v>       0.20000000      -0.20000000      -0.20000000 </v>
   <v>       0.40000000      -0.20000000      -0.20000000 </v>
   <v>      -0.40000000      -0.20000000      -0.20000000 </v>
   <v>      -0.20000000      -0.20000000      -0.20000000 </v>
  </varray>
  <varray name="weights" >
   <v>       0.00800000 </v>
   <v>       0.00800000 </v>
   <v>       0.00800000 </v>
   <v>       0.00800000 </v>
   <v>       0.00800000 </v>
   <v>       0.00800000 </v>
   <v>       0.00800000 </v>
   <v>       0.00800000 </v>
   <v>       0.00800000 </v>
   <v>       0.00800000 </v>
   <v>       0.00800000 </v>
   <v>       0.00800000 </v>
   <v>       0.00800000 </v>
   <v>       0.00800000 </v>
   <v>       0.00800000 </v>
   <v>       0.00800000 </v>
   <v>       0.00800000 </v>
   <v>       0.00800000 </v>
   <v>       0.00800000 </v>
   <v>       0.00800000 </v>
   <v>       0.00800000 </v>
   <v>       0.00800000 </v>
   <v>       0.00800000 </v>
   <v>       0.00800000 </v>
   <v>       0.00800000 </v>
   <v>       0.00800000 </v>
   <v>       0.00800000 </v>
   <v>       0.00800000 </v>
   <v>       0.00800000 </v>
   <v>       0.00800000 </v>
   <v>       0.00800000 </v>
   <v>       0.00800000 </v>
   <v>       0.00800000 </v>
   <v>       0.00800000 </v>
   <v>       0.00800000 </v>
   <v>       0.00800000 </v>
   <v>       0.00800000 </v>
   <v>       0.00800000 </v>
   <v>       0.00800000 </v>
   <v>       0.00800000 </v>
   <v>       0.00800000 </v>
   <v>       0.00800000 </v>
   <v>       0.00800000 </v>
   <v>       0.00800000 </v>
   <v>       0.00800000 </v>
   <v>       0.00800000 </v>
   <v>       0.00800000 </v>
   <v>       0.00800000 </v>
   <v>       0.00800000 </v>
   <v>       0.00800000 </v>
   <v>       0.00800000 </v>
   <v>       0.00800000 </v>
   <v>       0.00800000 </v>
   <v>       0.00800000 </v>
   <v>       0.00800000 </v>
   <v>       0.00800000 </v>
   <v>       0.00800000 </v>
   <v>       0.00800000 </v>
   <v>       0.00800000 </v>
   <v>       0.00800000 </v>
   <v>       0.00800000 </v>
   <v>       0.00800000 </v>
   <v>       0.00800000 </v>
   <v>       0.00800000 </v>
   <v>       0.00800000 </v>
   <v>       0.00800000 </v>
   <v>       0.00800000 </v>
   <v>       0.00800000 </v>
   <v>       0.00800000 </v>
   <v>       0.00800000 </v>
   <v>       0.00800000 </v>
   <v>       0.00800000 </v>
   <v>       0.00800000 </v>
   <v>       0.00800000 </v>
   <v>       0.00800000 </v>
   <v>       0.00800000 </v>
   <v>       0.00800000 </v>
   <v>       0.00800000 </v>
   <v>       0.00800000 </v>
   <v>       0.00800000 </v>
   <v>       0.00800000 </v>
   <v>       0.00800000 </v>
   <v>       0.00800000 </v>
   <v>       0.00800000 </v>
   <v>       0.00800000 </v>
   <v>       0.00800000 </v>
   <v>       0.00800000 </v>
   <v>       0.00800000 </v>
   <v>       0.00800000 </v>
   <v>       0.00800000 </v>
   <v>       0.00800000 </v>
   <v>       0.00800000 </v>
   <v>       0.00800000 </v>
   <v>       0.00800000 </v>
   <v>       0.00800000 </v>
   <v>       0.00800000 </v>
   <v>       0.00800000 </v>
   <v>       0.00800000 </v>
   <v>       0.00800000 </v>
   <v>       0.00800000 </v>
   <v>       0.00800000 </v>
   <v>       0.00800000 </v>
   <v>       0.00800000 </v>
   <v>       0.00800000 </v>
   <v>       0.00800000 </v>
   <v>       0.00800000 </v>
   <v>       0.00800000 </v>
   <v>       0.00800000 </v>
   <v>       0.00800000 </v>
   <v>       0.00800000 </v>
   <v>       0.00800000 </v>
   <v>       0.00800000 </v>
   <v>       0.00800000 </v>
   <v>       0.00800000 </v>
   <v>       0.00800000 </v>
   <v>       0.00800000 </v>
   <v>       0.00800000 </v>
   <v>       0.00800000 </v>
   <v>       0.00800000 </v>
   <v>       0.00800000 </v>
   <v>       0.00800000 </v>
   <v>       0.00800000 </v>
   <v>       0.00800000 </v>
   <v>       0.00800000 </v>
   <v>       0.00800000 </v>
  </varray>
 </kpoints>
 <dielectricfunction comment="HEAD OF MICROSCOPIC DIELECTRIC TENSOR (INDEPENDENT PARTICLE)">
  <imag>
   <array>
    <dimension dim="1">gridpoints</dimension>
    <field>energy</field>
    <field>xx</field>
    <field>yy</field>
    <field>zz</field>
    <field>xy</field>
    <field>yz</field>
    <field>zx</field>
    <set>
     <r>     0.0000     0.0000     0.0000     0.0000    -0.0000     0.0000     0.0000 </r>
     <r>     1.2796     3.8134     3.8134     0.8369    -0.0000     0.0000     0.0000 </r>
     <r>     2.5543     8.1529     8.1529     2.2266    -0.0000     0.0000     0.0000 </r>
     <r>     3.8198     9.2121     9.2121     4.5301     0.0000     0.0000     0.0000 </r>
     <r>     5.0718     7.8339     7.8339     6.9205     0.0000    -0.0000    -0.0000 </r>
     <r>     6.3071     5.9460     5.9460     6.8289     0.0000    -0.0000    -0.0000 </r>
     <r>     7.5233     4.3579     4.3579     5.9375     0.0000    -0.0000    -0.0000 </r>
     <r>     8.7191     3.6089     3.6089     5.4417     0.0000    -0.0000    -0.0000 </r>
     <r>     9.8937     3.4481     3.4481     4.8434     0.0000    -0.0000    -0.0000 </r>
     <r>    11.0473     3.2829     3.2829     3.9381     0.0000     0.0000     0.0000 </r>
     <r>    12.1809     2.8705     2.8705     3.1531    -0.0000     0.0000     0.0000 </r>
     <r>    13.2960     2.4130     2.4130     2.5296    -0.0000    -0.0000    -0.0000 </r>
     <r>    14.3947     1.9395     1.9395     1.9233    -0.0000    -0.0000    -0.0000 </r>
     <r>    15.4797     1.4991     1.4991     1.3757    -0.0000     0.0000     0.0000 </r>
     <r>    16.5534     1.1143     1.1143     1.0008    -0.0000     0.0000     0.0000 </r>
     <r>    17.6194     0.8133     0.8133     0.7519    -0.0000     0.0000     0.0000 </r>
     <r>    18.6812     0.5998     0.5998     0.5801    -0.0000     0.0000     0.0000 </r>
     <r>    19.7425     0.4739     0.4739     0.4661    -0.0000     0.0000     0.0000 </r>
     <r>    20.8074     0.3906     0.3906     0.3810    -0.0000     0.0000     0.0000 </r>
     <r>    21.8803     0.3320     0.3320     0.3141    -0.0000     0.0000     0.0000 </r>
     <r>    22.9657     0.2880     0.2880     0.2672    -0.0000     0.0000     0.0000 </r>
     <r>    24.0688     0.2532     0.2532     0.2347    -0.0000     0.0000     0.0000 </r>
     <r>    25.1950     0.2248     0.2248     0.2156    -0.0000     0.0000     0.0000 </r>
     <r>    26.3508     0.2052     0.2052     0.2064    -0.0000    -0.0000    -0.0000 </r>
     <r>    27.5429     0.1861     0.1861     0.1945     0.0000    -0.0000    -0.0000 </r>
     <r>    28.7791     0.1731     0.1731     0.1763     0.0000    -0.0000    -0.0000 </r>
     <r>    30.0676     0.1698     0.1698     0.1616     0.0000    -0.0000    -0.0000 </r>
     <r>    31.4188     0.1761     0.1761     0.1583     0.0000    -0.0000    -0.0000 </r>
     <r>    32.8444     0.1929     0.1929     0.1680    -0.0000     0.0000     0.0000 </r>
     <r>    34.3584     0.2378     0.2378     0.2034    -0.0000     0.0000     0.0000 </r>
     <r>    35.9761     0.3712     0.3712     0.3096    -0.0000     0.0000     0.0000 </r>
     <r>    37.7187     0.5305     0.5305     0.4610     0.0000    -0.0000    -0.0000 </r>
     <r>    39.6079     0.3604     0.3604     0.3692    -0.0000    -0.0000    -0.0000 </r>
     <r>    41.6734     0.1941     0.1941     0.2081    -0.0000    -0.0000    -0.0000 </r>
     <r>    43.9511     0.1323     0.1323     0.1362    -0.0000     0.0000     0.0000 </r>
     <r>    46.4854     0.0909     0.0909     0.0890    -0.0000     0.0000     0.0000 </r>
     <r>    49.3353     0.0551     0.0551     0.0559    -0.0000     0.0000     0.0000 </r>
     <r>    52.5734     0.0344     0.0344     0.0355    -0.0000    -0.0000    -0.0000 </r>
     <r>    56.2995     0.0258     0.0258     0.0248    -0.0000    -0.0000    -0.0000 </r>
     <r>    60.6442     0.0191     0.0190     0.0185    -0.0000    -0.0000    -0.0000 </r>
     <r>    65.7890     0.0125     0.0125     0.0123    -0.0000    -0.0000    -0.0000 </r>
     <r>    71.9915     0.0079     0.0079     0.0079    -0.0000    -0.0000    -0.0000 </r>
     <r>    79.6260     0.0048     0.0048     0.0046    -0.0000    -0.0000    -0.0000 </r>
     <r>    89.2609     0.0029     0.0029     0.0029    -0.0000    -0.0000    -0.0000 </r>
     <r>   101.8035     0.0017     0.0017     0.0018    -0.0000    -0.0000    -0.0000 </r>
     <r>   118.7949     0.0008     0.0008     0.0008    -0.0000    -0.0000    -0.0000 </r>
     <r>   143.0779     0.0004     0.0004     0.0004    -0.0000     0.0000     0.0000 </r>
     <r>   180.5413     0.0002     0.0002     0.0002    -0.0000     0.0000     0.0000 </r>
     <r>   245.6965     0.0001     0.0001     0.0001    -0.0000     0.0000     0.0000 </r>
     <r>   386.5860     0.0000     0.0000     0.0000    -0.0000     0.0000     0.0000 </r>
    </set>
   </array>
  </imag>
  <real>
   <array>
    <dimension dim="1">gridpoints</dimension>
    <field>energy</field>
    <field>xx</field>
    <field>yy</field>
    <field>zz</field>
    <field>xy</field>
    <field>yz</field>
    <field>zx</field>
    <set>
     <r>     0.0000    12.9232    12.9232     7.7635    -0.0000     0.0000     0.0000 </r>
     <r>     1.2796    12.7272    12.7272     7.9724    -0.0000     0.0000     0.0000 </r>
     <r>     2.5543     9.9102     9.9102     8.3455     0.0000    -0.0000    -0.0000 </r>
     <r>     3.8198     5.1729     5.1729     8.2013     0.0000    -0.0000    -0.0000 </r>
     <r>     5.0718     1.9346     1.9347     5.9819     0.0000    -0.0000    -0.0000 </r>
     <r>     6.3071     0.3938     0.3938     3.1167     0.0000     0.0000     0.0000 </r>
     <r>     7.5233     0.0876     0.0876     1.7502     0.0000    -0.0000    -0.0000 </r>
     <r>     8.7191     0.3268     0.3268     0.8682    -0.0000     0.0000     0.0000 </r>
     <r>     9.8937     0.3281     0.3281    -0.0887    -0.0000     0.0000     0.0000 </r>
     <r>    11.0473    -0.0350    -0.0350    -0.7133    -0.0000     0.0000     0.0000 </r>
     <r>    12.1809    -0.3997    -0.3997    -0.9329    -0.0000    -0.0000    -0.0000 </r>
     <r>    13.2960    -0.6146    -0.6146    -1.0513    -0.0000    -0.0000    -0.0000 </r>
     <r>    14.3947    -0.7249    -0.7249    -1.0880    -0.0000     0.0000     0.0000 </r>
     <r>    15.4797    -0.7187    -0.7187    -0.9529    -0.0000     0.0000     0.0000 </r>
     <r>    16.5534    -0.6233    -0.6233    -0.7223    -0.0000     0.0000     0.0000 </r>
     <r>    17.6194    -0.4631    -0.4631    -0.5041    -0.0000    -0.0000    -0.0000 </r>
     <r>    18.6812    -0.2731    -0.2731    -0.3060    -0.0000    -0.0000    -0.0000 </r>
     <r>    19.7425    -0.0953    -0.0953    -0.1373    -0.0000    -0.0000    -0.0000 </r>
     <r>    20.8074     0.0468     0.0468     0.0009    -0.0000    -0.0000    -0.0000 </r>
     <r>    21.8803     0.1659     0.1659     0.1240    -0.0000    -0.0000    -0.0000 </r>
     <r>    22.9657     0.2651     0.2651     0.2341    -0.0000    -0.0000    -0.0000 </r>
     <r>    24.0688     0.3503     0.3503     0.3304    -0.0000    -0.0000    -0.0000 </r>
     <r>    25.1950     0.4274     0.4274     0.4149    -0.0000    -0.0000    -0.0000 </r>
     <r>    26.3508     0.4955     0.4955     0.4822    -0.0000    -0.0000    -0.0000 </r>
     <r>    27.5429     0.5573     0.5573     0.5346    -0.0000    -0.0000    -0.0000 </r>
     <r>    28.7791     0.6205     0.6205     0.5858    -0.0000    -0.0000    -0.0000 </r>
     <r>    30.0676     0.6820     0.6820     0.6437    -0.0000    -0.0000    -0.0000 </r>
     <r>    31.4188     0.7408     0.7408     0.7048    -0.0000     0.0000    -0.0000 </r>
     <r>    32.8444     0.8002     0.8002     0.7679    -0.0000     0.0000     0.0000 </r>
     <r>    34.3584     0.8705     0.8705     0.8380    -0.0000    -0.0000    -0.0000 </r>
     <r>    35.9761     0.9138     0.9137     0.8923    -0.0000    -0.0000    -0.0000 </r>
     <r>    37.7187     0.7337     0.7337     0.7736    -0.0000    -0.0000    -0.0000 </r>
     <r>    39.6079     0.5306     0.5306     0.5850    -0.0000    -0.0000    -0.0000 </r>
     <r>    41.6734     0.5694     0.5694     0.5775    -0.0000     0.0000     0.0000 </r>
     <r>    43.9511     0.6344     0.6344     0.6354    -0.0000     0.0000     0.0000 </r>
     <r>    46.4854     0.6762     0.6762     0.6780    -0.0000    -0.0000    -0.0000 </r>
     <r>    49.3353     0.7210     0.7210     0.7245    -0.0000    -0.0000    -0.0000 </r>
     <r>    52.5734     0.7679     0.7679     0.7684    -0.0000    -0.0000    -0.0000 </r>
     <r>    56.2995     0.8068     0.8068     0.8069    -0.0000    -0.0000    -0.0000 </r>
     <r>    60.6442     0.8372     0.8372     0.8382     0.0000    -0.0000    -0.0000 </r>
     <r>    65.7890     0.8644     0.8644     0.8652     0.0000    -0.0000    -0.0000 </r>
     <r>    71.9915     0.8894     0.8894     0.8899     0.0000    -0.0000    -0.0000 </r>
     <r>    79.6260     0.9117     0.9117     0.9120     0.0000    -0.0000    -0.0000 </r>
     <r>    89.2609     0.9314     0.9314     0.9316     0.0000    -0.0000    -0.0000 </r>
     <r>   101.8035     0.9482     0.9482     0.9483     0.0000    -0.0000    -0.0000 </r>
     <r>   118.7949     0.9626     0.9626     0.9626     0.0000    -0.0000    -0.0000 </r>
     <r>   143.0779     0.9746     0.9746     0.9746     0.0000    -0.0000    -0.0000 </r>
     <r>   180.5413     0.9842     0.9842     0.9842     0.0000    -0.0000    -0.0000 </r>
     <r>   245.6965     0.9916     0.9916     0.9916     0.0000    -0.0000    -0.0000 </r>
     <r>   386.5860     0.9966     0.9966     0.9966     0.0000    -0.0000    -0.0000 </r>
    </set>
   </array>
  </real>
 </dielectricfunction>
 <varray name="epsilon_diag_mic" >
  <v>       0.00000000      11.20329403 </v>
  <v>       2.28203421       1.72664702 </v>
  <v>       4.56406841       1.06629731 </v>
  <v>       6.84610262       1.00629085 </v>
  <v>       6.84610262       1.00629085 </v>
  <v>       4.56406841       1.06629731 </v>
  <v>       2.28203421       1.72664702 </v>
  <v>       2.28203464       1.72664657 </v>
  <v>       3.95259969       1.12407839 </v>
  <v>       6.03769548       1.01378790 </v>
  <v>       6.03769467       1.01378879 </v>
  <v>       3.95259894       1.12409100 </v>
  <v>       2.28203421       1.72666529 </v>
  <v>       4.56406928       1.06629723 </v>
  <v>       6.03769597       1.01378785 </v>
  <v>       6.03769467       1.01378996 </v>
  <v>       4.56406841       1.06630297 </v>
  <v>       3.95259969       1.12409083 </v>
  <v>       6.84610391       1.00629084 </v>
  <v>       6.84610262       1.00629149 </v>
  <v>       6.03769548       1.01378991 </v>
  <v>       6.03769597       1.01378880 </v>
  <v>       6.84610391       1.00629084 </v>
  <v>       6.03769597       1.01378880 </v>
  <v>       6.03769548       1.01378991 </v>
  <v>       6.84610262       1.00629149 </v>
  <v>       4.56406928       1.06629723 </v>
  <v>       3.95259969       1.12409083 </v>
  <v>       4.56406841       1.06630297 </v>
  <v>       6.03769467       1.01378996 </v>
  <v>       6.03769597       1.01378785 </v>
  <v>       2.28203464       1.72664657 </v>
  <v>       2.28203421       1.72666529 </v>
  <v>       3.95259894       1.12409100 </v>
  <v>       6.03769467       1.01378879 </v>
  <v>       6.03769548       1.01378790 </v>
  <v>       3.95259969       1.12407839 </v>
  <v>       0.45711576       6.74692441 </v>
  <v>       2.32736652       1.68170658 </v>
  <v>       4.58690258       1.06518125 </v>
  <v>       6.86134651       1.00618132 </v>
  <v>       6.86134651       1.00618132 </v>
  <v>       4.58690258       1.06518126 </v>
  <v>       2.32736652       1.68170663 </v>
  <v>       2.32736695       1.68170621 </v>
  <v>       3.97894447       1.12075686 </v>
  <v>       6.05497494       1.01350919 </v>
  <v>       6.05497413       1.01351021 </v>
  <v>       3.97894373       1.12076851 </v>
  <v>       2.32736652       1.68172410 </v>
  <v>       4.58690344       1.06518118 </v>
  <v>       6.05497543       1.01350914 </v>
  <v>       6.05497413       1.01351137 </v>
  <v>       4.58690258       1.06518586 </v>
  <v>       3.97894447       1.12076836 </v>
  <v>       6.86134780       1.00618131 </v>
  <v>       6.86134651       1.00618191 </v>
  <v>       6.05497494       1.01351133 </v>
  <v>       6.05497543       1.01351021 </v>
  <v>       6.86134780       1.00618131 </v>
  <v>       6.05497543       1.01351021 </v>
  <v>       6.05497494       1.01351132 </v>
  <v>       6.86134651       1.00618191 </v>
  <v>       4.58690344       1.06518118 </v>
  <v>       3.97894447       1.12076835 </v>
  <v>       4.58690258       1.06518587 </v>
  <v>       6.05497413       1.01351137 </v>
  <v>       6.05497543       1.01350915 </v>
  <v>       2.32736695       1.68170618 </v>
  <v>       2.32736652       1.68172414 </v>
  <v>       3.97894373       1.12076852 </v>
  <v>       6.05497413       1.01351021 </v>
  <v>       6.05497494       1.01350919 </v>
  <v>       3.97894447       1.12075687 </v>
  <v>       0.91423151       4.91054109 </v>
  <v>       2.45835298       1.56899293 </v>
  <v>       4.65473305       1.06127945 </v>
  <v>       6.90687631       1.00588177 </v>
  <v>       6.90687631       1.00588177 </v>
  <v>       4.65473305       1.06127947 </v>
  <v>       2.45835298       1.56899300 </v>
  <v>       2.45835338       1.56899265 </v>
  <v>       4.05695250       1.11206974 </v>
  <v>       6.10651996       1.01272421 </v>
  <v>       6.10651915       1.01272540 </v>
  <v>       4.05695177       1.11208022 </v>
  <v>       2.45835298       1.56900863 </v>
  <v>       4.65473389       1.06127941 </v>
  <v>       6.10652044       1.01272418 </v>
  <v>       6.10651915       1.01272645 </v>
  <v>       4.65473305       1.06128274 </v>
  <v>       4.05695250       1.11208011 </v>
  <v>       6.90687759       1.00588176 </v>
  <v>       6.90687631       1.00588229 </v>
  <v>       6.10651996       1.01272642 </v>
  <v>       6.10652044       1.01272540 </v>
  <v>       6.90687759       1.00588176 </v>
  <v>       6.10652044       1.01272539 </v>
  <v>       6.10651996       1.01272641 </v>
  <v>       6.90687631       1.00588229 </v>
  <v>       4.65473389       1.06127940 </v>
  <v>       4.05695250       1.11208007 </v>
  <v>       4.65473305       1.06128275 </v>
  <v>       6.10651915       1.01272645 </v>
  <v>       6.10652044       1.01272419 </v>
  <v>       2.45835338       1.56899261 </v>
  <v>       2.45835298       1.56900868 </v>
  <v>       4.05695177       1.11208025 </v>
  <v>       6.10651915       1.01272540 </v>
  <v>       6.10651996       1.01272422 </v>
  <v>       4.05695250       1.11206977 </v>
  <v>       1.37134727       3.35879004 </v>
  <v>       2.66238116       1.44213892 </v>
  <v>       4.76563887       1.05415965 </v>
  <v>       6.98209957       1.00545721 </v>
  <v>       6.98209957       1.00545721 </v>
  <v>       4.76563887       1.05415966 </v>
  <v>       2.66238116       1.44213897 </v>
  <v>       2.66238153       1.44213868 </v>
  <v>       4.18373489       1.10007724 </v>
  <v>       6.19147479       1.01156995 </v>
  <v>       6.19147399       1.01157118 </v>
  <v>       4.18373418       1.10008636 </v>
  <v>       2.66238116       1.44215414 </v>
  <v>       4.76563969       1.05415960 </v>
  <v>       6.19147527       1.01156993 </v>
  <v>       6.19147399       1.01157198 </v>
  <v>       4.76563887       1.05416265 </v>
  <v>       4.18373489       1.10008629 </v>
  <v>       6.98210084       1.00545721 </v>
  <v>       6.98209957       1.00545767 </v>
  <v>       6.19147479       1.01157196 </v>
  <v>       6.19147527       1.01157117 </v>
  <v>       6.98210084       1.00545721 </v>
  <v>       6.19147527       1.01157116 </v>
  <v>       6.19147479       1.01157196 </v>
  <v>       6.98209957       1.00545767 </v>
  <v>       4.76563969       1.05415960 </v>
  <v>       4.18373489       1.10008623 </v>
  <v>       4.76563887       1.05416266 </v>
  <v>       6.19147399       1.01157199 </v>
  <v>       6.19147527       1.01156994 </v>
  <v>       2.66238153       1.44213866 </v>
  <v>       2.66238116       1.44215417 </v>
  <v>       4.18373418       1.10008641 </v>
  <v>       6.19147399       1.01157119 </v>
  <v>       6.19147479       1.01156995 </v>
  <v>       4.18373489       1.10007727 </v>
  <v>       1.82846302       2.34019830 </v>
  <v>       2.92420197       1.33588500 </v>
  <v>       4.91670596       1.04503262 </v>
  <v>       7.08607071       1.00495484 </v>
  <v>       7.08607071       1.00495484 </v>
  <v>       4.91670596       1.04503263 </v>
  <v>       2.92420197       1.33588501 </v>
  <v>       2.92420230       1.33588483 </v>
  <v>       4.35503402       1.08530626 </v>
  <v>       6.30848982       1.01022080 </v>
  <v>       6.30848904       1.01022202 </v>
  <v>       4.35503334       1.08531288 </v>
  <v>       2.92420197       1.33589460 </v>
  <v>       4.91670676       1.04503257 </v>
  <v>       6.30849029       1.01022079 </v>
  <v>       6.30848904       1.01022247 </v>
  <v>       4.91670596       1.04503617 </v>
  <v>       4.35503402       1.08531285 </v>
  <v>       7.08607196       1.00495483 </v>
  <v>       7.08607071       1.00495523 </v>
  <v>       6.30848982       1.01022246 </v>
  <v>       6.30849029       1.01022200 </v>
  <v>       7.08607196       1.00495483 </v>
  <v>       6.30849029       1.01022199 </v>
  <v>       6.30848982       1.01022246 </v>
  <v>       7.08607071       1.00495523 </v>
  <v>       4.91670676       1.04503258 </v>
  <v>       4.35503402       1.08531279 </v>
  <v>       4.91670596       1.04503617 </v>
  <v>       6.30848904       1.01022248 </v>
  <v>       6.30849029       1.01022080 </v>
  <v>       2.92420230       1.33588484 </v>
  <v>       2.92420197       1.33589460 </v>
  <v>       4.35503334       1.08531294 </v>
  <v>       6.30848904       1.01022202 </v>
  <v>       6.30848982       1.01022080 </v>
  <v>       4.35503402       1.08530629 </v>
  <v>       2.28557878       1.75402579 </v>
  <v>       3.22979109       1.25207843 </v>
  <v>       5.10436978       1.03601417 </v>
  <v>       7.21754747       1.00440054 </v>
  <v>       7.21754747       1.00440054 </v>
  <v>       5.10436978       1.03601417 </v>
  <v>       3.22979109       1.25207842 </v>
  <v>       3.22979139       1.25207832 </v>
  <v>       4.56584216       1.06851734 </v>
  <v>       6.45582195       1.00881260 </v>
  <v>       6.45582119       1.00881353 </v>
  <v>       4.56584152       1.06852215 </v>
  <v>       3.22979109       1.25208309 </v>
  <v>       5.10437055       1.03601414 </v>
  <v>       6.45582241       1.00881260 </v>
  <v>       6.45582119       1.00881377 </v>
  <v>       5.10436978       1.03601654 </v>
  <v>       4.56584216       1.06852212 </v>
  <v>       7.21754869       1.00440053 </v>
  <v>       7.21754747       1.00440091 </v>
  <v>       6.45582195       1.00881377 </v>
  <v>       6.45582241       1.00881352 </v>
  <v>       7.21754869       1.00440053 </v>
  <v>       6.45582241       1.00881351 </v>
  <v>       6.45582195       1.00881376 </v>
  <v>       7.21754747       1.00440091 </v>
  <v>       5.10437055       1.03601414 </v>
  <v>       4.56584216       1.06852208 </v>
  <v>       5.10436978       1.03601655 </v>
  <v>       6.45582119       1.00881378 </v>
  <v>       6.45582241       1.00881260 </v>
  <v>       3.22979139       1.25207835 </v>
  <v>       3.22979109       1.25208307 </v>
  <v>       4.56584152       1.06852218 </v>
  <v>       6.45582119       1.00881353 </v>
  <v>       6.45582195       1.00881261 </v>
  <v>       4.56584216       1.06851735 </v>
  <v>       2.74269454       1.43426423 </v>
  <v>       3.56792004       1.18486930 </v>
  <v>       5.32476232       1.02833324 </v>
  <v>       7.37505894       1.00381641 </v>
  <v>       7.37505894       1.00381641 </v>
  <v>       5.32476232       1.02833324 </v>
  <v>       3.56792004       1.18486930 </v>
  <v>       3.56792032       1.18486923 </v>
  <v>       4.81096847       1.05197963 </v>
  <v>       6.63145083       1.00743798 </v>
  <v>       6.63145008       1.00743876 </v>
  <v>       4.81096786       1.05198232 </v>
  <v>       3.56792004       1.18487287 </v>
  <v>       5.32476306       1.02833322 </v>
  <v>       6.63145127       1.00743798 </v>
  <v>       6.63145008       1.00743882 </v>
  <v>       5.32476232       1.02833482 </v>
  <v>       4.81096847       1.05198229 </v>
  <v>       7.37506014       1.00381640 </v>
  <v>       7.37505894       1.00381677 </v>
  <v>       6.63145083       1.00743881 </v>
  <v>       6.63145127       1.00743875 </v>
  <v>       7.37506014       1.00381640 </v>
  <v>       6.63145127       1.00743875 </v>
  <v>       6.63145083       1.00743881 </v>
  <v>       7.37505894       1.00381677 </v>
  <v>       5.32476306       1.02833321 </v>
  <v>       4.81096847       1.05198228 </v>
  <v>       5.32476232       1.02833483 </v>
  <v>       6.63145008       1.00743882 </v>
  <v>       6.63145127       1.00743798 </v>
  <v>       3.56792032       1.18486925 </v>
  <v>       3.56792004       1.18487285 </v>
  <v>       4.81096786       1.05198233 </v>
  <v>       6.63145008       1.00743876 </v>
  <v>       6.63145083       1.00743798 </v>
  <v>       4.81096847       1.05197963 </v>
  <v>       3.19981029       1.26066068 </v>
  <v>       3.93019923       1.13070337 </v>
  <v>       5.57400273       1.02191988 </v>
  <v>       7.55697737       1.00324361 </v>
  <v>       7.55697737       1.00324361 </v>
  <v>       5.57400273       1.02191989 </v>
  <v>       3.93019923       1.13070337 </v>
  <v>       3.93019949       1.13070332 </v>
  <v>       5.08545280       1.03793619 </v>
  <v>       6.83319491       1.00616071 </v>
  <v>       6.83319419       1.00616131 </v>
  <v>       5.08545222       1.03793821 </v>
  <v>       3.93019923       1.13070682 </v>
  <v>       5.57400343       1.02191987 </v>
  <v>       6.83319534       1.00616071 </v>
  <v>       6.83319419       1.00616139 </v>
  <v>       5.57400273       1.02192076 </v>
  <v>       5.08545280       1.03793818 </v>
  <v>       7.55697854       1.00324360 </v>
  <v>       7.55697737       1.00324395 </v>
  <v>       6.83319491       1.00616138 </v>
  <v>       6.83319534       1.00616130 </v>
  <v>       7.55697854       1.00324360 </v>
  <v>       6.83319534       1.00616131 </v>
  <v>       6.83319491       1.00616138 </v>
  <v>       7.55697737       1.00324395 </v>
  <v>       5.57400343       1.02191987 </v>
  <v>       5.08545280       1.03793819 </v>
  <v>       5.57400273       1.02192077 </v>
  <v>       6.83319419       1.00616139 </v>
  <v>       6.83319534       1.00616070 </v>
  <v>       3.93019949       1.13070333 </v>
  <v>       3.93019923       1.13070681 </v>
  <v>       5.08545222       1.03793821 </v>
  <v>       6.83319419       1.00616131 </v>
  <v>       6.83319491       1.00616071 </v>
  <v>       5.08545280       1.03793619 </v>
  <v>       3.65692605       1.16231444 </v>
  <v>       4.31054385       1.08874206 </v>
  <v>       5.84840394       1.01643520 </v>
  <v>       7.76158677       1.00271310 </v>
  <v>       7.76158677       1.00271310 </v>
  <v>       5.84840394       1.01643520 </v>
  <v>       4.31054385       1.08874206 </v>
  <v>       4.31054407       1.08874202 </v>
  <v>       5.38480756       1.02710267 </v>
  <v>       7.05881540       1.00502455 </v>
  <v>       7.05881470       1.00502502 </v>
  <v>       5.38480701       1.02710419 </v>
  <v>       4.31054385       1.08874459 </v>
  <v>       5.84840461       1.01643519 </v>
  <v>       7.05881582       1.00502455 </v>
  <v>       7.05881470       1.00502519 </v>
  <v>       5.84840394       1.01643582 </v>
  <v>       5.38480756       1.02710416 </v>
  <v>       7.76158791       1.00271309 </v>
  <v>       7.76158677       1.00271340 </v>
  <v>       7.05881540       1.00502518 </v>
  <v>       7.05881582       1.00502501 </v>
  <v>       7.76158791       1.00271309 </v>
  <v>       7.05881582       1.00502501 </v>
  <v>       7.05881540       1.00502518 </v>
  <v>       7.76158677       1.00271340 </v>
  <v>       5.84840461       1.01643519 </v>
  <v>       5.38480756       1.02710417 </v>
  <v>       5.84840394       1.01643583 </v>
  <v>       7.05881470       1.00502519 </v>
  <v>       7.05881582       1.00502454 </v>
  <v>       4.31054407       1.08874203 </v>
  <v>       4.31054385       1.08874459 </v>
  <v>       5.38480701       1.02710418 </v>
  <v>       7.05881470       1.00502501 </v>
  <v>       7.05881540       1.00502455 </v>
  <v>       5.38480756       1.02710266 </v>
  <v>       4.11404180       1.10271039 </v>
  <v>       4.70457438       1.05830475 </v>
  <v>       6.14459604       1.01193637 </v>
  <v>       6.14459604       1.01193637 </v>
  <v>       4.70457438       1.05830475 </v>
  <v>       4.70457459       1.05830473 </v>
  <v>       5.70511913       1.01917743 </v>
  <v>       7.30610065       1.00404810 </v>
  <v>       7.30609998       1.00404842 </v>
  <v>       5.70511861       1.01917841 </v>
  <v>       4.70457438       1.05830613 </v>
  <v>       6.14459668       1.01193637 </v>
  <v>       7.30610105       1.00404810 </v>
  <v>       7.30609998       1.00404866 </v>
  <v>       6.14459604       1.01193693 </v>
  <v>       5.70511913       1.01917839 </v>
  <v>       7.30610065       1.00404865 </v>
  <v>       7.30610105       1.00404841 </v>
  <v>       7.30610105       1.00404841 </v>
  <v>       7.30610065       1.00404866 </v>
  <v>       6.14459668       1.01193636 </v>
  <v>       5.70511913       1.01917840 </v>
  <v>       6.14459604       1.01193693 </v>
  <v>       7.30609998       1.00404866 </v>
  <v>       7.30610105       1.00404809 </v>
  <v>       4.70457459       1.05830473 </v>
  <v>       4.70457438       1.05830613 </v>
  <v>       5.70511861       1.01917840 </v>
  <v>       7.30609998       1.00404841 </v>
  <v>       7.30610065       1.00404810 </v>
  <v>       5.70511913       1.01917742 </v>
  <v>       4.57115756       1.06414192 </v>
  <v>       5.10912532       1.03739049 </v>
  <v>       6.45958218       1.00858273 </v>
  <v>       6.45958218       1.00858274 </v>
  <v>       5.10912532       1.03739050 </v>
  <v>       5.10912552       1.03739049 </v>
  <v>       6.04305599       1.01349081 </v>
  <v>       7.57292864       1.00322549 </v>
  <v>       7.57292799       1.00322571 </v>
  <v>       6.04305550       1.01349125 </v>
  <v>       5.10912532       1.03739068 </v>
  <v>       6.45958279       1.00858273 </v>
  <v>       7.57292903       1.00322549 </v>
  <v>       7.57292799       1.00322593 </v>
  <v>       6.45958218       1.00858326 </v>
  <v>       6.04305599       1.01349123 </v>
  <v>       7.57292864       1.00322592 </v>
  <v>       7.57292903       1.00322570 </v>
  <v>       7.57292903       1.00322570 </v>
  <v>       7.57292864       1.00322593 </v>
  <v>       6.45958279       1.00858273 </v>
  <v>       6.04305599       1.01349124 </v>
  <v>       6.45958218       1.00858327 </v>
  <v>       7.57292799       1.00322593 </v>
  <v>       7.57292903       1.00322548 </v>
  <v>       5.10912552       1.03739049 </v>
  <v>       5.10912532       1.03739068 </v>
  <v>       6.04305550       1.01349124 </v>
  <v>       7.57292799       1.00322570 </v>
  <v>       7.57292864       1.00322549 </v>
  <v>       6.04305599       1.01349081 </v>
  <v>       5.02827332       1.03896064 </v>
  <v>       5.52188488       1.02362575 </v>
  <v>       6.79074760       1.00625261 </v>
  <v>       6.79074760       1.00625261 </v>
  <v>       5.52188488       1.02362575 </v>
  <v>       5.52188506       1.02362575 </v>
  <v>       6.39582495       1.00945143 </v>
  <v>       6.39582449       1.00945179 </v>
  <v>       5.52188488       1.02362524 </v>
  <v>       6.79074818       1.00625260 </v>
  <v>       6.79074760       1.00625299 </v>
  <v>       6.39582495       1.00945178 </v>
  <v>       6.79074818       1.00625260 </v>
  <v>       6.39582495       1.00945178 </v>
  <v>       6.79074760       1.00625299 </v>
  <v>       5.52188506       1.02362575 </v>
  <v>       5.52188488       1.02362524 </v>
  <v>       6.39582449       1.00945178 </v>
  <v>       6.39582495       1.00945142 </v>
  <v>       5.48538907       1.02342615 </v>
  <v>       5.94114243       1.01490606 </v>
  <v>       7.13584009       1.00463747 </v>
  <v>       7.13584009       1.00463747 </v>
  <v>       5.94114243       1.01490606 </v>
  <v>       5.94114260       1.01490606 </v>
  <v>       6.76110476       1.00662991 </v>
  <v>       6.76110432       1.00663019 </v>
  <v>       5.94114243       1.01490565 </v>
  <v>       7.13584064       1.00463746 </v>
  <v>       7.13584009       1.00463777 </v>
  <v>       6.76110476       1.00663018 </v>
  <v>       7.13584064       1.00463746 </v>
  <v>       6.76110476       1.00663018 </v>
  <v>       7.13584009       1.00463777 </v>
  <v>       5.94114260       1.01490606 </v>
  <v>       5.94114243       1.01490565 </v>
  <v>       6.76110432       1.00663018 </v>
  <v>       6.76110476       1.00662991 </v>
  <v>       5.94250483       1.01429988 </v>
  <v>       6.36561417       1.00952650 </v>
  <v>       7.49293561       1.00345284 </v>
  <v>       7.49293561       1.00345284 </v>
  <v>       6.36561417       1.00952650 </v>
  <v>       6.36561432       1.00952650 </v>
  <v>       7.13697470       1.00470528 </v>
  <v>       7.13697429       1.00470554 </v>
  <v>       6.36561417       1.00952641 </v>
  <v>       7.49293614       1.00345284 </v>
  <v>       7.49293561       1.00345307 </v>
  <v>       7.13697470       1.00470553 </v>
  <v>       7.49293614       1.00345284 </v>
  <v>       7.13697470       1.00470554 </v>
  <v>       7.49293561       1.00345307 </v>
  <v>       6.36561432       1.00952650 </v>
  <v>       6.36561417       1.00952641 </v>
  <v>       7.13697429       1.00470554 </v>
  <v>       7.13697470       1.00470528 </v>
  <v>       6.39962058       1.00893182 </v>
  <v>       6.79432291       1.00623875 </v>
  <v>       6.79432291       1.00623875 </v>
  <v>       6.79432305       1.00623875 </v>
  <v>       7.52184737       1.00337527 </v>
  <v>       7.52184698       1.00337554 </v>
  <v>       6.79432291       1.00623893 </v>
  <v>       7.52184737       1.00337554 </v>
  <v>       7.52184737       1.00337554 </v>
  <v>       6.79432305       1.00623875 </v>
  <v>       6.79432291       1.00623893 </v>
  <v>       7.52184698       1.00337554 </v>
  <v>       7.52184737       1.00337527 </v>
  <v>       6.85673634       1.00569638 </v>
  <v>       7.22651461       1.00418715 </v>
  <v>       7.22651461       1.00418715 </v>
  <v>       7.22651474       1.00418715 </v>
  <v>       7.22651461       1.00418737 </v>
  <v>       7.22651474       1.00418715 </v>
  <v>       7.22651461       1.00418737 </v>
  <v>       7.31385210       1.00371267 </v>
  <v>       7.66159987       1.00285560 </v>
  <v>       7.66159987       1.00285560 </v>
  <v>       7.66160000       1.00285560 </v>
  <v>       7.66159987       1.00285579 </v>
  <v>       7.66160000       1.00285560 </v>
  <v>       7.66159987       1.00285579 </v>
  <v>       7.31385210       1.00371267 </v>
  <v>       7.66159987       1.00285560 </v>
  <v>       7.66159987       1.00285560 </v>
  <v>       7.66160000       1.00285560 </v>
  <v>       7.66159987       1.00285579 </v>
  <v>       7.66160000       1.00285560 </v>
  <v>       7.66159987       1.00285579 </v>
  <v>       6.85673634       1.00569638 </v>
  <v>       7.22651461       1.00418715 </v>
  <v>       7.22651461       1.00418715 </v>
  <v>       7.22651474       1.00418715 </v>
  <v>       7.22651461       1.00418737 </v>
  <v>       7.22651474       1.00418715 </v>
  <v>       7.22651461       1.00418737 </v>
  <v>       6.39962058       1.00893182 </v>
  <v>       6.79432291       1.00623875 </v>
  <v>       6.79432291       1.00623875 </v>
  <v>       6.79432305       1.00623875 </v>
  <v>       7.52184737       1.00337527 </v>
  <v>       7.52184698       1.00337554 </v>
  <v>       6.79432291       1.00623893 </v>
  <v>       7.52184737       1.00337554 </v>
  <v>       7.52184737       1.00337554 </v>
  <v>       6.79432305       1.00623875 </v>
  <v>       6.79432291       1.00623893 </v>
  <v>       7.52184698       1.00337554 </v>
  <v>       7.52184737       1.00337527 </v>
  <v>       5.94250483       1.01429988 </v>
  <v>       6.36561417       1.00952650 </v>
  <v>       7.49293561       1.00345284 </v>
  <v>       7.49293561       1.00345284 </v>
  <v>       6.36561417       1.00952650 </v>
  <v>       6.36561432       1.00952650 </v>
  <v>       7.13697470       1.00470528 </v>
  <v>       7.13697429       1.00470554 </v>
  <v>       6.36561417       1.00952641 </v>
  <v>       7.49293614       1.00345284 </v>
  <v>       7.49293561       1.00345307 </v>
  <v>       7.13697470       1.00470554 </v>
  <v>       7.49293614       1.00345284 </v>
  <v>       7.13697470       1.00470553 </v>
  <v>       7.49293561       1.00345307 </v>
  <v>       6.36561432       1.00952650 </v>
  <v>       6.36561417       1.00952641 </v>
  <v>       7.13697429       1.00470554 </v>
  <v>       7.13697470       1.00470528 </v>
  <v>       5.48538907       1.02342615 </v>
  <v>       5.94114243       1.01490606 </v>
  <v>       7.13584009       1.00463747 </v>
  <v>       7.13584009       1.00463747 </v>
  <v>       5.94114243       1.01490606 </v>
  <v>       5.94114260       1.01490606 </v>
  <v>       6.76110476       1.00662991 </v>
  <v>       6.76110432       1.00663018 </v>
  <v>       5.94114243       1.01490565 </v>
  <v>       7.13584064       1.00463746 </v>
  <v>       7.13584009       1.00463777 </v>
  <v>       6.76110476       1.00663018 </v>
  <v>       7.13584064       1.00463746 </v>
  <v>       6.76110476       1.00663018 </v>
  <v>       7.13584009       1.00463777 </v>
  <v>       5.94114260       1.01490606 </v>
  <v>       5.94114243       1.01490565 </v>
  <v>       6.76110432       1.00663019 </v>
  <v>       6.76110476       1.00662991 </v>
  <v>       5.02827332       1.03896064 </v>
  <v>       5.52188488       1.02362575 </v>
  <v>       6.79074760       1.00625261 </v>
  <v>       6.79074760       1.00625261 </v>
  <v>       5.52188488       1.02362575 </v>
  <v>       5.52188506       1.02362575 </v>
  <v>       6.39582495       1.00945142 </v>
  <v>       6.39582449       1.00945178 </v>
  <v>       5.52188488       1.02362524 </v>
  <v>       6.79074818       1.00625260 </v>
  <v>       6.79074760       1.00625299 </v>
  <v>       6.39582495       1.00945178 </v>
  <v>       6.79074818       1.00625260 </v>
  <v>       6.39582495       1.00945178 </v>
  <v>       6.79074760       1.00625299 </v>
  <v>       5.52188506       1.02362575 </v>
  <v>       5.52188488       1.02362524 </v>
  <v>       6.39582449       1.00945179 </v>
  <v>       6.39582495       1.00945143 </v>
  <v>       4.57115756       1.06414192 </v>
  <v>       5.10912532       1.03739050 </v>
  <v>       6.45958218       1.00858274 </v>
  <v>       6.45958218       1.00858273 </v>
  <v>       5.10912532       1.03739049 </v>
  <v>       5.10912552       1.03739049 </v>
  <v>       6.04305599       1.01349081 </v>
  <v>       7.57292864       1.00322549 </v>
  <v>       7.57292799       1.00322570 </v>
  <v>       6.04305550       1.01349124 </v>
  <v>       5.10912532       1.03739068 </v>
  <v>       6.45958279       1.00858273 </v>
  <v>       7.57292903       1.00322548 </v>
  <v>       7.57292799       1.00322593 </v>
  <v>       6.45958218       1.00858327 </v>
  <v>       6.04305599       1.01349124 </v>
  <v>       7.57292864       1.00322593 </v>
  <v>       7.57292903       1.00322570 </v>
  <v>       7.57292903       1.00322570 </v>
  <v>       7.57292864       1.00322592 </v>
  <v>       6.45958279       1.00858273 </v>
  <v>       6.04305599       1.01349123 </v>
  <v>       6.45958218       1.00858326 </v>
  <v>       7.57292799       1.00322593 </v>
  <v>       7.57292903       1.00322549 </v>
  <v>       5.10912552       1.03739049 </v>
  <v>       5.10912532       1.03739068 </v>
  <v>       6.04305550       1.01349125 </v>
  <v>       7.57292799       1.00322571 </v>
  <v>       7.57292864       1.00322549 </v>
  <v>       6.04305599       1.01349081 </v>
  <v>       4.11404180       1.10271039 </v>
  <v>       4.70457438       1.05830475 </v>
  <v>       6.14459604       1.01193637 </v>
  <v>       6.14459604       1.01193637 </v>
  <v>       4.70457438       1.05830475 </v>
  <v>       4.70457459       1.05830473 </v>
  <v>       5.70511913       1.01917742 </v>
  <v>       7.30610065       1.00404810 </v>
  <v>       7.30609998       1.00404841 </v>
  <v>       5.70511861       1.01917840 </v>
  <v>       4.70457438       1.05830613 </v>
  <v>       6.14459668       1.01193636 </v>
  <v>       7.30610105       1.00404809 </v>
  <v>       7.30609998       1.00404866 </v>
  <v>       6.14459604       1.01193693 </v>
  <v>       5.70511913       1.01917840 </v>
  <v>       7.30610065       1.00404866 </v>
  <v>       7.30610105       1.00404841 </v>
  <v>       7.30610105       1.00404841 </v>
  <v>       7.30610065       1.00404865 </v>
  <v>       6.14459668       1.01193637 </v>
  <v>       5.70511913       1.01917839 </v>
  <v>       6.14459604       1.01193693 </v>
  <v>       7.30609998       1.00404866 </v>
  <v>       7.30610105       1.00404810 </v>
  <v>       4.70457459       1.05830473 </v>
  <v>       4.70457438       1.05830613 </v>
  <v>       5.70511861       1.01917841 </v>
  <v>       7.30609998       1.00404842 </v>
  <v>       7.30610065       1.00404810 </v>
  <v>       5.70511913       1.01917743 </v>
  <v>       3.65692605       1.16231444 </v>
  <v>       4.31054385       1.08874206 </v>
  <v>       5.84840394       1.01643520 </v>
  <v>       7.76158677       1.00271310 </v>
  <v>       7.76158677       1.00271310 </v>
  <v>       5.84840394       1.01643520 </v>
  <v>       4.31054385       1.08874206 </v>
  <v>       4.31054407       1.08874203 </v>
  <v>       5.38480756       1.02710266 </v>
  <v>       7.05881540       1.00502455 </v>
  <v>       7.05881470       1.00502501 </v>
  <v>       5.38480701       1.02710418 </v>
  <v>       4.31054385       1.08874459 </v>
  <v>       5.84840461       1.01643519 </v>
  <v>       7.05881582       1.00502454 </v>
  <v>       7.05881470       1.00502519 </v>
  <v>       5.84840394       1.01643583 </v>
  <v>       5.38480756       1.02710417 </v>
  <v>       7.76158791       1.00271309 </v>
  <v>       7.76158677       1.00271340 </v>
  <v>       7.05881540       1.00502518 </v>
  <v>       7.05881582       1.00502501 </v>
  <v>       7.76158791       1.00271309 </v>
  <v>       7.05881582       1.00502501 </v>
  <v>       7.05881540       1.00502518 </v>
  <v>       7.76158677       1.00271340 </v>
  <v>       5.84840461       1.01643519 </v>
  <v>       5.38480756       1.02710416 </v>
  <v>       5.84840394       1.01643582 </v>
  <v>       7.05881470       1.00502519 </v>
  <v>       7.05881582       1.00502455 </v>
  <v>       4.31054407       1.08874202 </v>
  <v>       4.31054385       1.08874459 </v>
  <v>       5.38480701       1.02710419 </v>
  <v>       7.05881470       1.00502502 </v>
  <v>       7.05881540       1.00502455 </v>
  <v>       5.38480756       1.02710267 </v>
  <v>       3.19981029       1.26066068 </v>
  <v>       3.93019923       1.13070337 </v>
  <v>       5.57400273       1.02191989 </v>
  <v>       7.55697737       1.00324361 </v>
  <v>       7.55697737       1.00324361 </v>
  <v>       5.57400273       1.02191988 </v>
  <v>       3.93019923       1.13070337 </v>
  <v>       3.93019949       1.13070333 </v>
  <v>       5.08545280       1.03793619 </v>
  <v>       6.83319491       1.00616071 </v>
  <v>       6.83319419       1.00616131 </v>
  <v>       5.08545222       1.03793821 </v>
  <v>       3.93019923       1.13070681 </v>
  <v>       5.57400343       1.02191987 </v>
  <v>       6.83319534       1.00616070 </v>
  <v>       6.83319419       1.00616139 </v>
  <v>       5.57400273       1.02192077 </v>
  <v>       5.08545280       1.03793819 </v>
  <v>       7.55697854       1.00324360 </v>
  <v>       7.55697737       1.00324395 </v>
  <v>       6.83319491       1.00616138 </v>
  <v>       6.83319534       1.00616131 </v>
  <v>       7.55697854       1.00324360 </v>
  <v>       6.83319534       1.00616130 </v>
  <v>       6.83319491       1.00616138 </v>
  <v>       7.55697737       1.00324395 </v>
  <v>       5.57400343       1.02191987 </v>
  <v>       5.08545280       1.03793818 </v>
  <v>       5.57400273       1.02192076 </v>
  <v>       6.83319419       1.00616139 </v>
  <v>       6.83319534       1.00616071 </v>
  <v>       3.93019949       1.13070332 </v>
  <v>       3.93019923       1.13070682 </v>
  <v>       5.08545222       1.03793821 </v>
  <v>       6.83319419       1.00616131 </v>
  <v>       6.83319491       1.00616071 </v>
  <v>       5.08545280       1.03793619 </v>
  <v>       2.74269454       1.43426423 </v>
  <v>       3.56792004       1.18486930 </v>
  <v>       5.32476232       1.02833324 </v>
  <v>       7.37505894       1.00381641 </v>
  <v>       7.37505894       1.00381641 </v>
  <v>       5.32476232       1.02833324 </v>
  <v>       3.56792004       1.18486930 </v>
  <v>       3.56792032       1.18486925 </v>
  <v>       4.81096847       1.05197963 </v>
  <v>       6.63145083       1.00743798 </v>
  <v>       6.63145008       1.00743876 </v>
  <v>       4.81096786       1.05198233 </v>
  <v>       3.56792004       1.18487285 </v>
  <v>       5.32476306       1.02833321 </v>
  <v>       6.63145127       1.00743798 </v>
  <v>       6.63145008       1.00743882 </v>
  <v>       5.32476232       1.02833483 </v>
  <v>       4.81096847       1.05198228 </v>
  <v>       7.37506014       1.00381640 </v>
  <v>       7.37505894       1.00381677 </v>
  <v>       6.63145083       1.00743881 </v>
  <v>       6.63145127       1.00743875 </v>
  <v>       7.37506014       1.00381640 </v>
  <v>       6.63145127       1.00743875 </v>
  <v>       6.63145083       1.00743881 </v>
  <v>       7.37505894       1.00381677 </v>
  <v>       5.32476306       1.02833322 </v>
  <v>       4.81096847       1.05198229 </v>
  <v>       5.32476232       1.02833482 </v>
  <v>       6.63145008       1.00743882 </v>
  <v>       6.63145127       1.00743798 </v>
  <v>       3.56792032       1.18486923 </v>
  <v>       3.56792004       1.18487286 </v>
  <v>       4.81096786       1.05198232 </v>
  <v>       6.63145008       1.00743876 </v>
  <v>       6.63145083       1.00743798 </v>
  <v>       4.81096847       1.05197963 </v>
  <v>       2.28557878       1.75402579 </v>
  <v>       3.22979109       1.25207842 </v>
  <v>       5.10436978       1.03601417 </v>
  <v>       7.21754747       1.00440054 </v>
  <v>       7.21754747       1.00440054 </v>
  <v>       5.10436978       1.03601417 </v>
  <v>       3.22979109       1.25207843 </v>
  <v>       3.22979139       1.25207835 </v>
  <v>       4.56584216       1.06851735 </v>
  <v>       6.45582195       1.00881261 </v>
  <v>       6.45582119       1.00881353 </v>
  <v>       4.56584152       1.06852218 </v>
  <v>       3.22979109       1.25208307 </v>
  <v>       5.10437055       1.03601414 </v>
  <v>       6.45582241       1.00881260 </v>
  <v>       6.45582119       1.00881378 </v>
  <v>       5.10436978       1.03601655 </v>
  <v>       4.56584216       1.06852208 </v>
  <v>       7.21754869       1.00440053 </v>
  <v>       7.21754747       1.00440091 </v>
  <v>       6.45582195       1.00881376 </v>
  <v>       6.45582241       1.00881351 </v>
  <v>       7.21754869       1.00440053 </v>
  <v>       6.45582241       1.00881352 </v>
  <v>       6.45582195       1.00881377 </v>
  <v>       7.21754747       1.00440091 </v>
  <v>       5.10437055       1.03601414 </v>
  <v>       4.56584216       1.06852212 </v>
  <v>       5.10436978       1.03601654 </v>
  <v>       6.45582119       1.00881377 </v>
  <v>       6.45582241       1.00881260 </v>
  <v>       3.22979139       1.25207832 </v>
  <v>       3.22979109       1.25208309 </v>
  <v>       4.56584152       1.06852215 </v>
  <v>       6.45582119       1.00881353 </v>
  <v>       6.45582195       1.00881260 </v>
  <v>       4.56584216       1.06851734 </v>
  <v>       1.82846302       2.34019830 </v>
  <v>       2.92420197       1.33588501 </v>
  <v>       4.91670596       1.04503263 </v>
  <v>       7.08607071       1.00495484 </v>
  <v>       7.08607071       1.00495484 </v>
  <v>       4.91670596       1.04503262 </v>
  <v>       2.92420197       1.33588500 </v>
  <v>       2.92420230       1.33588484 </v>
  <v>       4.35503402       1.08530629 </v>
  <v>       6.30848982       1.01022080 </v>
  <v>       6.30848904       1.01022202 </v>
  <v>       4.35503334       1.08531294 </v>
  <v>       2.92420197       1.33589460 </v>
  <v>       4.91670676       1.04503258 </v>
  <v>       6.30849029       1.01022080 </v>
  <v>       6.30848904       1.01022248 </v>
  <v>       4.91670596       1.04503617 </v>
  <v>       4.35503402       1.08531279 </v>
  <v>       7.08607196       1.00495483 </v>
  <v>       7.08607071       1.00495523 </v>
  <v>       6.30848982       1.01022246 </v>
  <v>       6.30849029       1.01022199 </v>
  <v>       7.08607196       1.00495483 </v>
  <v>       6.30849029       1.01022200 </v>
  <v>       6.30848982       1.01022246 </v>
  <v>       7.08607071       1.00495523 </v>
  <v>       4.91670676       1.04503257 </v>
  <v>       4.35503402       1.08531285 </v>
  <v>       4.91670596       1.04503617 </v>
  <v>       6.30848904       1.01022247 </v>
  <v>       6.30849029       1.01022079 </v>
  <v>       2.92420230       1.33588483 </v>
  <v>       2.92420197       1.33589460 </v>
  <v>       4.35503334       1.08531288 </v>
  <v>       6.30848904       1.01022202 </v>
  <v>       6.30848982       1.01022080 </v>
  <v>       4.35503402       1.08530626 </v>
  <v>       1.37134727       3.35879004 </v>
  <v>       2.66238116       1.44213897 </v>
  <v>       4.76563887       1.05415966 </v>
  <v>       6.98209957       1.00545721 </v>
  <v>       6.98209957       1.00545721 </v>
  <v>       4.76563887       1.05415965 </v>
  <v>       2.66238116       1.44213892 </v>
  <v>       2.66238153       1.44213866 </v>
  <v>       4.18373489       1.10007727 </v>
  <v>       6.19147479       1.01156995 </v>
  <v>       6.19147399       1.01157119 </v>
  <v>       4.18373418       1.10008641 </v>
  <v>       2.66238116       1.44215417 </v>
  <v>       4.76563969       1.05415960 </v>
  <v>       6.19147527       1.01156994 </v>
  <v>       6.19147399       1.01157199 </v>
  <v>       4.76563887       1.05416266 </v>
  <v>       4.18373489       1.10008623 </v>
  <v>       6.98210084       1.00545721 </v>
  <v>       6.98209957       1.00545767 </v>
  <v>       6.19147479       1.01157196 </v>
  <v>       6.19147527       1.01157116 </v>
  <v>       6.98210084       1.00545721 </v>
  <v>       6.19147527       1.01157117 </v>
  <v>       6.19147479       1.01157196 </v>
  <v>       6.98209957       1.00545767 </v>
  <v>       4.76563969       1.05415960 </v>
  <v>       4.18373489       1.10008629 </v>
  <v>       4.76563887       1.05416265 </v>
  <v>       6.19147399       1.01157198 </v>
  <v>       6.19147527       1.01156993 </v>
  <v>       2.66238153       1.44213868 </v>
  <v>       2.66238116       1.44215414 </v>
  <v>       4.18373418       1.10008636 </v>
  <v>       6.19147399       1.01157118 </v>
  <v>       6.19147479       1.01156995 </v>
  <v>       4.18373489       1.10007724 </v>
  <v>       0.91423151       4.91054109 </v>
  <v>       2.45835298       1.56899300 </v>
  <v>       4.65473305       1.06127947 </v>
  <v>       6.90687631       1.00588177 </v>
  <v>       6.90687631       1.00588177 </v>
  <v>       4.65473305       1.06127945 </v>
  <v>       2.45835298       1.56899293 </v>
  <v>       2.45835338       1.56899261 </v>
  <v>       4.05695250       1.11206977 </v>
  <v>       6.10651996       1.01272422 </v>
  <v>       6.10651915       1.01272540 </v>
  <v>       4.05695177       1.11208025 </v>
  <v>       2.45835298       1.56900868 </v>
  <v>       4.65473389       1.06127940 </v>
  <v>       6.10652044       1.01272419 </v>
  <v>       6.10651915       1.01272645 </v>
  <v>       4.65473305       1.06128275 </v>
  <v>       4.05695250       1.11208007 </v>
  <v>       6.90687759       1.00588176 </v>
  <v>       6.90687631       1.00588229 </v>
  <v>       6.10651996       1.01272641 </v>
  <v>       6.10652044       1.01272539 </v>
  <v>       6.90687759       1.00588176 </v>
  <v>       6.10652044       1.01272540 </v>
  <v>       6.10651996       1.01272642 </v>
  <v>       6.90687631       1.00588229 </v>
  <v>       4.65473389       1.06127941 </v>
  <v>       4.05695250       1.11208011 </v>
  <v>       4.65473305       1.06128274 </v>
  <v>       6.10651915       1.01272645 </v>
  <v>       6.10652044       1.01272418 </v>
  <v>       2.45835338       1.56899265 </v>
  <v>       2.45835298       1.56900863 </v>
  <v>       4.05695177       1.11208022 </v>
  <v>       6.10651915       1.01272540 </v>
  <v>       6.10651996       1.01272421 </v>
  <v>       4.05695250       1.11206974 </v>
  <v>       0.45711576       6.74692441 </v>
  <v>       2.32736652       1.68170663 </v>
  <v>       4.58690258       1.06518126 </v>
  <v>       6.86134651       1.00618132 </v>
  <v>       6.86134651       1.00618132 </v>
  <v>       4.58690258       1.06518125 </v>
  <v>       2.32736652       1.68170658 </v>
  <v>       2.32736695       1.68170618 </v>
  <v>       3.97894447       1.12075687 </v>
  <v>       6.05497494       1.01350919 </v>
  <v>       6.05497413       1.01351021 </v>
  <v>       3.97894373       1.12076852 </v>
  <v>       2.32736652       1.68172414 </v>
  <v>       4.58690344       1.06518118 </v>
  <v>       6.05497543       1.01350915 </v>
  <v>       6.05497413       1.01351137 </v>
  <v>       4.58690258       1.06518587 </v>
  <v>       3.97894447       1.12076835 </v>
  <v>       6.86134780       1.00618131 </v>
  <v>       6.86134651       1.00618191 </v>
  <v>       6.05497494       1.01351132 </v>
  <v>       6.05497543       1.01351021 </v>
  <v>       6.86134780       1.00618131 </v>
  <v>       6.05497543       1.01351021 </v>
  <v>       6.05497494       1.01351133 </v>
  <v>       6.86134651       1.00618191 </v>
  <v>       4.58690344       1.06518118 </v>
  <v>       3.97894447       1.12076836 </v>
  <v>       4.58690258       1.06518586 </v>
  <v>       6.05497413       1.01351137 </v>
  <v>       6.05497543       1.01350914 </v>
  <v>       2.32736695       1.68170621 </v>
  <v>       2.32736652       1.68172410 </v>
  <v>       3.97894373       1.12076851 </v>
  <v>       6.05497413       1.01351021 </v>
  <v>       6.05497494       1.01350919 </v>
[...]
  <v>       7.17268180       0.99607144 </v>
  <v>       7.17268224       0.99607172 </v>
  <v>       5.98534281       0.98799593 </v>
  <v>       4.99362730       0.96576758 </v>
  <v>       5.94572739       0.98752068 </v>
  <v>       7.49549165       0.99696702 </v>
  <v>       7.49549152       0.99696698 </v>
  <v>       5.94572729       0.98752063 </v>
  <v>       4.99362726       0.96576767 </v>
  <v>       5.85748593       0.98619345 </v>
  <v>       7.06634163       0.99558479 </v>
  <v>       7.06634097       0.99558449 </v>
  <v>       5.85748552       0.98619319 </v>
  <v>       5.39466949       0.97768069 </v>
  <v>       7.35522490       0.99660298 </v>
  <v>       7.35522401       0.99660262 </v>
  <v>       6.60938457       0.99368164 </v>
  <v>       6.60938490       0.99368170 </v>
  <v>       7.70110482       0.99746638 </v>
  <v>       7.35522466       0.99660813 </v>
  <v>       7.70110410       0.99746614 </v>
  <v>       6.11839445       0.98957675 </v>
  <v>       6.11839416       0.98957666 </v>
  <v>       6.91737694       0.99510490 </v>
  <v>       6.91737771       0.99510546 </v>
  <v>       5.09684707       0.96919448 </v>
  <v>       5.58440047       0.98161973 </v>
  <v>       6.84167869       0.99478147 </v>
  <v>       6.84167916       0.99478189 </v>
  <v>       5.58440075       0.98162007 </v>
  <v>       4.55142026       0.94638498 </v>
  <v>       5.57949702       0.98164514 </v>
  <v>       7.20843311       0.99616417 </v>
  <v>       7.20843297       0.99616409 </v>
  <v>       5.57949691       0.98164495 </v>
  <v>       4.55142021       0.94638531 </v>
  <v>       5.48536727       0.97956481 </v>
  <v>       6.76108696       0.99422557 </v>
  <v>       6.76108626       0.99422520 </v>
  <v>       5.48536684       0.97956401 </v>
  <v>       4.98814311       0.96524616 </v>
  <v>       7.06246742       0.99567208 </v>
  <v>       7.06246650       0.99567163 </v>
  <v>       6.28196443       0.99136448 </v>
  <v>       6.28196478       0.99136449 </v>
  <v>       7.69754955       0.99743787 </v>
  <v>       7.42200297       0.99681825 </v>
  <v>       7.06246717       0.99565574 </v>
  <v>       7.42200223       0.99681798 </v>
  <v>       5.76314700       0.98499000 </v>
  <v>       5.76314670       0.98498953 </v>
  <v>       6.60524159       0.99352160 </v>
  <v>       6.60524240       0.99352220 </v>
  <v>       4.66443596       0.95181901 </v>
  <v>       5.19274892       0.97191423 </v>
  <v>       6.52592370       0.99302183 </v>
  <v>       6.52592418       0.99302238 </v>
  <v>       5.19274922       0.97191494 </v>
  <v>       4.11247477       0.91930032 </v>
  <v>       5.22760073       0.97318722 </v>
  <v>       6.93963473       0.99519724 </v>
  <v>       6.93963459       0.99519711 </v>
  <v>       5.22760062       0.97318689 </v>
  <v>       4.11247472       0.91930060 </v>
  <v>       5.12701438       0.97004206 </v>
  <v>       6.47374074       0.99249066 </v>
  <v>       6.47374001       0.99249015 </v>
  <v>       5.12701392       0.97004065 </v>
  <v>       4.59114300       0.94735016 </v>
  <v>       6.78789131       0.99450036 </v>
  <v>       6.78789035       0.99449986 </v>
  <v>       5.97160778       0.98815713 </v>
  <v>       5.97160815       0.98815719 </v>
  <v>       7.44642810       0.99683238 </v>
  <v>       7.16122549       0.99604819 </v>
  <v>       6.78789105       0.99447879 </v>
  <v>       7.16122472       0.99604790 </v>
  <v>       5.42318041       0.97843343 </v>
  <v>       5.42318008       0.97843240 </v>
  <v>       6.31080335       0.99140015 </v>
  <v>       6.31080419       0.99140076 </v>
  <v>       4.23721432       0.92743416 </v>
  <v>       4.81265662       0.95790601 </v>
  <v>       6.22773655       0.99065851 </v>
  <v>       6.22773705       0.99065918 </v>
  <v>       4.81265694       0.95790734 </v>
  <v>       3.67795878       0.88268110 </v>
  <v>       4.89313206       0.96177388 </v>
  <v>       6.69129750       0.99400763 </v>
  <v>       6.69129735       0.99400746 </v>
  <v>       4.89313194       0.96177378 </v>
  <v>       3.67795872       0.88267982 </v>
  <v>       4.78552071       0.95703615 </v>
  <v>       6.20679073       0.99033837 </v>
  <v>       6.20678997       0.99033752 </v>
  <v>       4.78552022       0.95703405 </v>
  <v>       4.20636732       0.92400329 </v>
  <v>       6.53378913       0.99304512 </v>
  <v>       6.53378814       0.99304462 </v>
  <v>       5.68111182       0.98383090 </v>
  <v>       5.68111220       0.98383104 </v>
  <v>       7.56781985       0.99715270 </v>
  <v>       7.21555427       0.99617402 </v>
  <v>       7.56782068       0.99715295 </v>
  <v>       6.92084406       0.99512333 </v>
  <v>       6.53378886       0.99309781 </v>
  <v>       6.92084327       0.99512300 </v>
  <v>       5.10155053       0.96947634 </v>
  <v>       5.10155018       0.96947470 </v>
  <v>       6.03665229       0.98863338 </v>
  <v>       7.56781923       0.99707571 </v>
  <v>       7.56782040       0.99707594 </v>
  <v>       6.03665317       0.98863407 </v>
  <v>       3.81692509       0.89494331 </v>
  <v>       4.44708845       0.93958885 </v>
  <v>       5.94975920       0.98758965 </v>
  <v>       5.94975973       0.98759057 </v>
  <v>       4.44708881       0.93959099 </v>
  <v>       3.24964958       0.83464919 </v>
  <v>       4.57991081       0.94733243 </v>
  <v>       6.46577945       0.99257124 </v>
  <v>       6.46577930       0.99257104 </v>
  <v>       4.57991068       0.94733268 </v>
  <v>       3.24964952       0.83464653 </v>
  <v>       4.46475645       0.94060434 </v>
  <v>       5.96297685       0.98777029 </v>
  <v>       5.96297605       0.98776893 </v>
  <v>       4.46475592       0.94060109 </v>
  <v>       3.83749497       0.89569855 </v>
  <v>       6.30263771       0.99127705 </v>
  <v>       6.30263668       0.99127653 </v>
  <v>       5.41367465       0.97831344 </v>
  <v>       5.41367505       0.97831360 </v>
  <v>       7.36917491       0.99662155 </v>
  <v>       7.00692979       0.99545860 </v>
  <v>       7.36917577       0.99662184 </v>
  <v>       6.70305335       0.99403558 </v>
  <v>       6.30263743       0.99148799 </v>
  <v>       6.70305252       0.99403518 </v>
  <v>       4.80194329       0.95806315 </v>
  <v>       4.80194292       0.95806091 </v>
  <v>       5.78567304       0.98518556 </v>
  <v>       7.36917427       0.99657473 </v>
  <v>       7.36917548       0.99657498 </v>
  <v>       5.78567396       0.98518654 </v>
  <v>       3.40613546       0.85339185 </v>
  <v>       4.09993138       0.91701244 </v>
  <v>       5.69495181       0.98374157 </v>
  <v>       7.64662508       0.99730094 </v>
  <v>       7.64662570       0.99730106 </v>
  <v>       5.69495236       0.98374292 </v>
  <v>       4.09993177       0.91701510 </v>
  <v>       2.83036635       0.77360736 </v>
  <v>       4.29259063       0.93038822 </v>
  <v>       6.26554508       0.99091885 </v>
  <v>       6.26554492       0.99091871 </v>
  <v>       4.29259049       0.93038769 </v>
  <v>       2.83036628       0.77360384 </v>
  <v>       4.16950853       0.92129955 </v>
  <v>       5.74524535       0.98471418 </v>
  <v>       7.68415559       0.99737693 </v>
  <v>       7.68415466       0.99737688 </v>
  <v>       5.74524453       0.98471247 </v>
  <v>       4.16950797       0.92129504 </v>
  <v>       3.48957289       0.86297254 </v>
  <v>       6.09704792       0.98925054 </v>
  <v>       7.61608286       0.99722041 </v>
  <v>       7.61608144       0.99722024 </v>
  <v>       6.09704685       0.98924988 </v>
  <v>       5.17287391       0.97180697 </v>
  <v>       5.17287432       0.97180723 </v>
  <v>       7.19412887       0.99607286 </v>
  <v>       6.82259601       0.99468074 </v>
  <v>       7.19412975       0.99607317 </v>
  <v>       6.51012100       0.99281284 </v>
  <v>       6.09704763       0.98961188 </v>
  <v>       6.51012015       0.99281228 </v>
  <v>       7.61608162       0.99724055 </v>
  <v>       7.61608307       0.99724080 </v>
  <v>       4.52873168       0.94463380 </v>
  <v>       4.52873129       0.94463095 </v>
  <v>       5.56100385       0.98118067 </v>
  <v>       7.19412821       0.99606510 </v>
  <v>       7.19412944       0.99606540 </v>
  <v>       5.56100481       0.98118226 </v>
  <v>       3.00873895       0.80222306 </v>
  <v>       3.77626649       0.89064145 </v>
  <v>       5.46655535       0.97923537 </v>
  <v>       7.47807638       0.99689863 </v>
  <v>       7.47807702       0.99689876 </v>
  <v>       5.46655593       0.97923724 </v>
  <v>       3.77626691       0.89064559 </v>
  <v>       2.42479577       0.69765216 </v>
  <v>       4.03670598       0.91217194 </v>
  <v>       6.09308756       0.98919897 </v>
  <v>       6.09308740       0.98919897 </v>
  <v>       4.03670583       0.91216973 </v>
  <v>       2.42479569       0.69764864 </v>
  <v>       3.90556812       0.90070919 </v>
  <v>       5.55666312       0.98122759 </v>
  <v>       7.54419697       0.99706796 </v>
  <v>       7.54419603       0.99706791 </v>
  <v>       5.55666227       0.98122547 </v>
  <v>       3.90556751       0.90070342 </v>
  <v>       3.16950782       0.82571512 </v>
  <v>       5.91968363       0.98712450 </v>
  <v>       7.47484977       0.99689386 </v>
  <v>       7.47484832       0.99689370 </v>
  <v>       5.91968253       0.98712350 </v>
  <v>       4.96258857       0.96489636 </v>
  <v>       4.96258901       0.96489681 </v>
  <v>       7.04444115       0.99552487 </v>
  <v>       6.66456880       0.99385497 </v>
  <v>       7.04444204       0.99552518 </v>
  <v>       6.34431528       0.99154776 </v>
  <v>       5.91968333       0.98742458 </v>
  <v>       6.34431441       0.99154700 </v>
  <v>       7.47484850       0.99689749 </v>
  <v>       7.47484998       0.99689772 </v>
  <v>       4.28696531       0.93013944 </v>
  <v>       4.28696489       0.93013693 </v>
  <v>       5.36595049       0.97695834 </v>
  <v>       7.04444048       0.99554765 </v>
  <v>       7.04444173       0.99554798 </v>
  <v>       5.36595148       0.97696086 </v>
  <v>       2.63081184       0.73987542 </v>
  <v>       3.48264978       0.86150928 </v>
  <v>       5.26800610       0.97443536 </v>
  <v>       7.33418621       0.99651663 </v>
  <v>       7.33418685       0.99651675 </v>
  <v>       5.26800670       0.97443793 </v>
  <v>       3.48265023       0.86151538 </v>
  <v>       2.04112838       0.60940903 </v>
  <v>       3.81858163       0.89447236 </v>
  <v>       5.95082234       0.98758749 </v>
  <v>       5.95082218       0.98758747 </v>
  <v>       3.81858148       0.89446941 </v>
  <v>       2.04112828       0.60940792 </v>
  <v>       3.67967836       0.88082489 </v>
  <v>       5.40028476       0.97764852 </v>
  <v>       7.42976975       0.99679170 </v>
  <v>       7.42976879       0.99679162 </v>
  <v>       5.40028389       0.97764568 </v>
  <v>       3.67967772       0.88081799 </v>
  <v>       2.88658108       0.78334979 </v>
  <v>       5.77314687       0.98508901 </v>
  <v>       7.35934437       0.99660005 </v>
  <v>       7.35934290       0.99659988 </v>
  <v>       5.77314574       0.98508730 </v>
  <v>       4.78684195       0.95808074 </v>
  <v>       4.78684240       0.95808125 </v>
  <v>       6.92175712       0.99501635 </v>
  <v>       6.53475690       0.99303044 </v>
  <v>       6.92175803       0.99501667 </v>
  <v>       6.20781015       0.99036288 </v>
  <v>       5.77314656       0.98510764 </v>
  <v>       6.20780926       0.99036198 </v>
  <v>       7.35934309       0.99658633 </v>
  <v>       7.35934458       0.99658653 </v>
  <v>       4.08223494       0.91589976 </v>
  <v>       4.08223450       0.91589839 </v>
  <v>       5.20384427       0.97285382 </v>
  <v>       6.92175643       0.99506610 </v>
  <v>       6.92175772       0.99506641 </v>
  <v>       5.20384530       0.97285731 </v>
  <v>       2.28204765       0.66672401 </v>
  <v>       3.22729299       0.83106118 </v>
  <v>       5.10278932       0.96979021 </v>
  <v>       7.21642971       0.99615889 </v>
  <v>       7.21643037       0.99615896 </v>
  <v>       5.10278993       0.96979339 </v>
  <v>       3.22729348       0.83106847 </v>
  <v>       1.69430966       0.51943640 </v>
  <v>       3.64500286       0.87812338 </v>
  <v>       5.84095598       0.98622127 </v>
  <v>       5.84095581       0.98622109 </v>
  <v>       3.64500270       0.87812065 </v>
  <v>       1.69430954       0.51943595 </v>
  <v>       3.49921605       0.86267975 </v>
  <v>       5.27897298       0.97466912 </v>
  <v>       7.34206774       0.99655309 </v>
  <v>       7.34206677       0.99655301 </v>
  <v>       5.27897208       0.97466534 </v>
  <v>       3.49921538       0.86267250 </v>
  <v>       2.65270249       0.73887333 </v>
  <v>       5.65983259       0.98333775 </v>
  <v>       7.27079292       0.99633808 </v>
  <v>       7.27079143       0.99633786 </v>
  <v>       5.65983144       0.98333519 </v>
  <v>       4.64955224       0.95192067 </v>
  <v>       4.64955270       0.95192072 </v>
  <v>       6.82753263       0.99457993 </v>
  <v>       6.43486814       0.99231522 </v>
  <v>       6.82753355       0.99458030 </v>
  <v>       7.68854006       0.99743126 </v>
  <v>       7.68853957       0.99743119 </v>
  <v>       6.10257216       0.98936886 </v>
  <v>       5.65983227       0.98309254 </v>
  <v>       6.10257126       0.98936781 </v>
  <v>       7.27079162       0.99632153 </v>
  <v>       7.27079314       0.99632174 </v>
  <v>       3.92034721       0.90302890 </v>
  <v>       3.92034676       0.90302827 </v>
  <v>       5.07784161       0.96920755 </v>
  <v>       6.82753193       0.99464410 </v>
  <v>       6.82753323       0.99464437 </v>
  <v>       5.07784265       0.96921139 </v>
  <v>       1.97793368       0.59052271 </v>
  <v>       3.01991725       0.80095064 </v>
  <v>       4.97422747       0.96568686 </v>
  <v>       7.12610258       0.99586044 </v>
  <v>       7.12610324       0.99586043 </v>
  <v>       4.97422811       0.96569017 </v>
  <v>       3.01991777       0.80095965 </v>
  <v>       1.41176308       0.43472751 </v>
  <v>       3.52256095       0.86432863 </v>
  <v>       5.76534097       0.98521105 </v>
  <v>       5.76534080       0.98521085 </v>
  <v>       3.52256078       0.86432493 </v>
  <v>       1.41176294       0.43472705 </v>
  <v>       3.37148376       0.84706777 </v>
  <v>       5.19518484       0.97274880 </v>
  <v>       7.28205661       0.99637050 </v>
  <v>       7.28205563       0.99637046 </v>
  <v>       5.19518393       0.97274430 </v>
  <v>       3.37148306       0.84706001 </v>
  <v>       2.48177764       0.70228968 </v>
  <v>       5.58176448       0.98199870 </v>
  <v>       7.21018859       0.99613314 </v>
  <v>       7.21018709       0.99613289 </v>
  <v>       5.58176331       0.98199575 </v>
  <v>       4.55419870       0.94710047 </v>
  <v>       4.55419917       0.94710013 </v>
  <v>       6.76295731       0.99425724 </v>
  <v>       6.36631115       0.99180118 </v>
  <v>       6.76295824       0.99425775 </v>
  <v>       7.63125403       0.99729887 </v>
  <v>       7.63125353       0.99729879 </v>
  <v>       6.03023853       0.98863045 </v>
  <v>       5.58176416       0.98178687 </v>
  <v>       6.03023762       0.98862903 </v>
  <v>       7.21018728       0.99612679 </v>
  <v>       7.21018881       0.99612707 </v>
  <v>       3.80677186       0.89252049 </v>
  <v>       3.80677140       0.89252001 </v>
  <v>       4.99067782       0.96630393 </v>
  <v>       6.76295661       0.99432818 </v>
  <v>       6.76295792       0.99432844 </v>
  <v>       4.99067889       0.96630771 </v>
  <v>       1.74201361       0.52424968 </v>
  <v>       2.87093886       0.77571175 </v>
  <v>       4.88521532       0.96258215 </v>
  <v>       7.06425706       0.99563833 </v>
  <v>       7.06425772       0.99563829 </v>
  <v>       4.88521597       0.96258579 </v>
  <v>       2.87093941       0.77572236 </v>
  <v>       1.23829496       0.37500434 </v>
  <v>       3.45669423       0.85588861 </v>
  <v>       5.72533457       0.98466308 </v>
  <v>       5.72533439       0.98466308 </v>
  <v>       3.45669406       0.85588329 </v>
  <v>       1.23829480       0.37500448 </v>
  <v>       3.30260536       0.83695301 </v>
  <v>       5.15075188       0.97193287 </v>
  <v>       7.25042398       0.99626712 </v>
  <v>       7.25042300       0.99626715 </v>
  <v>       5.15075096       0.97192839 </v>
  <v>       3.30260464       0.83694384 </v>
  <v>       2.38736668       0.68351376 </v>
  <v>       5.54043266       0.98124414 </v>
  <v>       7.17823926       0.99600959 </v>
  <v>       7.17823775       0.99600936 </v>
  <v>       5.54043149       0.98124138 </v>
  <v>       4.50344592       0.94436383 </v>
  <v>       4.50344641       0.94436337 </v>
  <v>       6.72888482       0.99407926 </v>
  <v>       6.33010404       0.99153724 </v>
  <v>       6.72888576       0.99407992 </v>
  <v>       7.60107475       0.99722667 </v>
  <v>       7.60107426       0.99722656 </v>
  <v>       5.99200102       0.98821056 </v>
  <v>       5.54043234       0.98120244 </v>
  <v>       5.99200010       0.98820866 </v>
  <v>       7.17823794       0.99601727 </v>
  <v>       7.17823948       0.99601763 </v>
  <v>       3.74590595       0.88604278 </v>
  <v>       3.74590548       0.88604251 </v>
  <v>       4.94440740       0.96462654 </v>
  <v>       6.72888412       0.99414842 </v>
  <v>       6.72888544       0.99414874 </v>
  <v>       4.94440848       0.96463037 </v>
  <v>       1.60465287       0.48480704 </v>
  <v>       2.78972926       0.76164769 </v>
  <v>       4.83793635       0.96091459 </v>
  <v>       7.03164470       0.99552128 </v>
  <v>       7.03164537       0.99552126 </v>
  <v>       4.83793700       0.96091895 </v>
  <v>       2.78972983       0.76165892 </v>
 </varray>
 <time name="total"> 1733.31 1735.85</time>
 <kpoints>
  <generation param="Gamma">
   <v type="int" name="divisions">       5        5        5 </v>
   <v name="usershift">      0.00000000       0.00000000       0.00000000 </v>
   <v name="genvec1">      0.20000000       0.00000000       0.00000000 </v>
   <v name="genvec2">     -0.00000000       0.20000000       0.00000000 </v>
   <v name="genvec3">      0.00000000       0.00000000       0.20000000 </v>
   <v name="shift">      0.00000000       0.00000000       0.00000000 </v>
  </generation>
  <varray name="kpointlist" >
   <v>       0.00000000       0.00000000       0.00000000 </v>
   <v>       0.20000000       0.00000000       0.00000000 </v>
   <v>       0.40000000       0.00000000       0.00000000 </v>
   <v>       0.20000000       0.20000000       0.00000000 </v>
   <v>       0.40000000       0.20000000       0.00000000 </v>
   <v>       0.00000000       0.00000000       0.20000000 </v>
   <v>       0.20000000       0.00000000       0.20000000 </v>
   <v>       0.40000000       0.00000000       0.20000000 </v>
   <v>       0.20000000       0.20000000       0.20000000 </v>
   <v>       0.40000000       0.20000000       0.20000000 </v>
   <v>       0.00000000       0.00000000       0.40000000 </v>
   <v>       0.20000000       0.00000000       0.40000000 </v>
   <v>       0.40000000       0.00000000       0.40000000 </v>
   <v>       0.20000000       0.20000000       0.40000000 </v>
   <v>       0.40000000       0.20000000       0.40000000 </v>
  </varray>
  <varray name="weights" >
   <v>       0.00800000 </v>
   <v>       0.04800000 </v>
   <v>       0.04800000 </v>
   <v>       0.04800000 </v>
   <v>       0.04800000 </v>
   <v>       0.01600000 </v>
   <v>       0.09600000 </v>
   <v>       0.09600000 </v>
   <v>       0.09600000 </v>
   <v>       0.09600000 </v>
   <v>       0.01600000 </v>
   <v>       0.09600000 </v>
   <v>       0.09600000 </v>
   <v>       0.09600000 </v>
   <v>       0.09600000 </v>
  </varray>
 </kpoints>
 <calculation>
