<?xml version="1.0" encoding="ISO-8859-1"?>
<modeling>
 <generator>
  <i name="program" type="string">vasp </i>
  <i name="version" type="string">5.3.5  </i>
  <i name="subversion" type="string">31Mar14 (build Jul 02 2019 13:03:44) complex                          parallel </i>
  <i name="platform" type="string">LinuxIFC </i>
  <i name="date" type="string">2019 07 03 </i>
  <i name="time" type="string">15:37:39 </i>
 </generator>
 <incar>
  <i type="string" name="SYSTEM"> 2H-MoS2</i>
  <i type="string" name="PREC">normal</i>
  <i type="string" name="ALGO"> GW0</i>
  <i name="EDIFF">      0.00010000</i>
  <i type="int" name="NBANDS">   128</i>
  <i type="int" name="NEDOS">  3000</i>
  <i type="int" name="ISMEAR">     0</i>
  <i name="SIGMA">      0.05000000</i>
  <i type="logical" name="LVTOT"> T  </i>
  <i type="int" name="NOMEGA">    50</i>
  <i type="logical" name="LSPECTRAL"> T  </i>
  <i type="int" name="MAXMEM">  8000</i>
  <i type="logical" name="LWANNIER90"> T  </i>
 </incar>
 <kpoints>
  <generation param="Gamma">
   <v type="int" name="divisions">       5        5        5 </v>
   <v name="usershift">      0.00000000       0.00000000       0.00000000 </v>
   <v name="genvec1">      0.20000000       0.00000000       0.00000000 </v>
   <v name="genvec2">     -0.00000000       0.20000000       0.00000000 </v>
   <v name="genvec3">      0.00000000       0.00000000       0.20000000 </v>
   <v name="shift">      0.00000000       0.00000000       0.00000000 </v>
  </generation>
  <varray name="kpointlist" >
   <v>       0.00000000       0.00000000       0.00000000 </v>
   <v>       0.20000000       0.00000000       0.00000000 </v>
   <v>       0.40000000       0.00000000       0.00000000 </v>
   <v>       0.20000000       0.20000000       0.00000000 </v>
   <v>       0.40000000       0.20000000       0.00000000 </v>
   <v>       0.00000000       0.00000000       0.20000000 </v>
   <v>       0.20000000       0.00000000       0.20000000 </v>
   <v>       0.40000000       0.00000000       0.20000000 </v>
   <v>       0.20000000       0.20000000       0.20000000 </v>
   <v>       0.40000000       0.20000000       0.20000000 </v>
   <v>       0.00000000       0.00000000       0.40000000 </v>
   <v>       0.20000000       0.00000000       0.40000000 </v>
   <v>       0.40000000       0.00000000       0.40000000 </v>
   <v>       0.20000000       0.20000000       0.40000000 </v>
   <v>       0.40000000       0.20000000       0.40000000 </v>
  </varray>
  <varray name="weights" >
   <v>       0.00800000 </v>
   <v>       0.04800000 </v>
   <v>       0.04800000 </v>
   <v>       0.04800000 </v>
   <v>       0.04800000 </v>
   <v>       0.01600000 </v>
   <v>       0.09600000 </v>
   <v>       0.09600000 </v>
   <v>       0.09600000 </v>
   <v>       0.09600000 </v>
   <v>       0.01600000 </v>
   <v>       0.09600000 </v>
   <v>       0.09600000 </v>
   <v>       0.09600000 </v>
   <v>       0.09600000 </v>
  </varray>
 </kpoints>
 <parameters>
  <separator name="general" >
   <i type="string" name="SYSTEM">2H-MoS2</i>
   <i type="logical" name="LCOMPAT"> F  </i>
  </separator>
  <separator name="electronic" >
   <i type="string" name="PREC">normal</i>
   <i name="ENMAX">    344.91400000</i>
   <i name="ENAUG">    964.74100000</i>
   <i name="EDIFF">      0.00010000</i>
   <i type="int" name="IALGO">    38</i>
   <i type="int" name="IWAVPR">    10</i>
   <i type="int" name="NBANDS">   128</i>
   <i name="NELECT">     52.00000000</i>
   <i type="int" name="TURBO">     0</i>
   <i type="int" name="IRESTART">     0</i>
   <i type="int" name="NREBOOT">     0</i>
   <i type="int" name="NMIN">     0</i>
   <i name="EREF">      0.00000000</i>
   <separator name="electronic smearing" >
    <i type="int" name="ISMEAR">     0</i>
    <i name="SIGMA">      0.05000000</i>
    <i name="KSPACING">      0.50000000</i>
    <i type="logical" name="KGAMMA"> T  </i>
   </separator>
   <separator name="electronic projectors" >
    <i type="logical" name="LREAL"> F  </i>
    <v name="ROPT">      0.00000000      0.00000000</v>
    <i type="int" name="LMAXPAW">  -100</i>
    <i type="int" name="LMAXMIX">     2</i>
    <i type="logical" name="NLSPLINE"> F  </i>
   </separator>
   <separator name="electronic startup" >
    <i type="int" name="ISTART">     1</i>
    <i type="int" name="ICHARG">     0</i>
    <i type="int" name="INIWAV">     1</i>
   </separator>
   <separator name="electronic spin" >
    <i type="int" name="ISPIN">     1</i>
    <i type="logical" name="LNONCOLLINEAR"> F  </i>
    <v name="MAGMOM">      1.00000000      1.00000000      1.00000000      1.00000000      1.00000000      1.00000000</v>
    <i name="NUPDOWN">     -1.00000000</i>
    <i type="logical" name="LSORBIT"> F  </i>
    <v name="SAXIS">      0.00000000      0.00000000      1.00000000</v>
    <i type="logical" name="LSPIRAL"> F  </i>
    <v name="QSPIRAL">      0.00000000      0.00000000      0.00000000</v>
    <i type="logical" name="LZEROZ"> F  </i>
   </separator>
   <separator name="electronic exchange-correlation" >
    <i type="logical" name="LASPH"> F  </i>
    <i type="logical" name="LMETAGGA"> F  </i>
   </separator>
   <separator name="electronic convergence" >
    <i type="int" name="NELM">    60</i>
    <i type="int" name="NELMDL">     0</i>
    <i type="int" name="NELMIN">     2</i>
    <i name="ENINI">    344.91400000</i>
    <separator name="electronic convergence detail" >
     <i type="logical" name="LDIAG"> T  </i>
     <i type="logical" name="LSUBROT"> F  </i>
     <i name="WEIMIN">      0.00000000</i>
     <i name="EBREAK">      0.00000020</i>
     <i name="DEPER">      0.30000000</i>
     <i type="int" name="NRMM">     4</i>
     <i name="TIME">      0.40000000</i>
    </separator>
   </separator>
   <separator name="electronic mixer" >
    <i name="AMIX">      0.40000000</i>
    <i name="BMIX">      1.00000000</i>
    <i name="AMIN">      0.10000000</i>
    <i name="AMIX_MAG">      1.60000000</i>
    <i name="BMIX_MAG">      1.00000000</i>
    <separator name="electronic mixer details" >
     <i type="int" name="IMIX">     1</i>
     <i type="int" name="MAXMIX">   -45</i>
     <i name="WC">    100.00000000</i>
     <i type="int" name="INIMIX">     1</i>
     <i type="int" name="MIXPRE">     1</i>
     <i type="int" name="MREMOVE">     5</i>
    </separator>
   </separator>
   <separator name="electronic dipolcorrection" >
    <i type="logical" name="LDIPOL"> F  </i>
    <i type="logical" name="LMONO"> F  </i>
    <i type="int" name="IDIPOL">     0</i>
    <i name="EPSILON">      1.00000000</i>
    <v name="DIPOL">   -100.00000000   -100.00000000   -100.00000000</v>
    <i name="EFIELD">      0.00000000</i>
   </separator>
  </separator>
  <separator name="grids" >
   <i type="int" name="NGX">    14</i>
   <i type="int" name="NGY">    14</i>
   <i type="int" name="NGZ">    64</i>
   <i type="int" name="NGXF">    28</i>
   <i type="int" name="NGYF">    28</i>
   <i type="int" name="NGZF">   128</i>
   <i type="logical" name="ADDGRID"> F  </i>
  </separator>
  <separator name="ionic" >
   <i type="int" name="NSW">     0</i>
   <i type="int" name="IBRION">    -1</i>
   <i type="int" name="ISIF">     0</i>
   <i name="PSTRESS">      0.00000000</i>
   <i name="EDIFFG">      0.00100000</i>
   <i type="int" name="NFREE">     0</i>
   <i name="POTIM">      0.50000000</i>
   <i name="SMASS">     -3.00000000</i>
   <i name="SCALEE">      1.00000000</i>
  </separator>
  <separator name="ionic md" >
   <i name="TEBEG">      0.00010000</i>
   <i name="TEEND">      0.00010000</i>
   <i type="int" name="NBLOCK">     1</i>
   <i type="int" name="KBLOCK">     1</i>
   <i type="int" name="NPACO">   256</i>
   <i name="APACO">     16.00000000</i>
  </separator>
  <separator name="symmetry" >
   <i type="int" name="ISYM">     3</i>
   <i name="SYMPREC">      0.00001000</i>
  </separator>
  <separator name="dos" >
   <i type="logical" name="LORBIT"> F  </i>
   <v name="RWIGS">     -1.00000000     -1.00000000</v>
   <i type="int" name="NEDOS">  3000</i>
   <i name="EMIN">     10.00000000</i>
   <i name="EMAX">    -10.00000000</i>
   <i name="EFERMI">      0.00000000</i>
  </separator>
  <separator name="writing" >
   <i type="int" name="NWRITE">     2</i>
   <i type="logical" name="LWAVE"> T  </i>
   <i type="logical" name="LCHARG"> T  </i>
   <i type="logical" name="LPARD"> F  </i>
   <i type="logical" name="LVTOT"> T  </i>
   <i type="logical" name="LVHAR"> F  </i>
   <i type="logical" name="LELF"> F  </i>
   <i type="logical" name="LOPTICS"> F  </i>
   <v name="STM">      0.00000000      0.00000000      0.00000000      0.00000000      0.00000000      0.00000000      0.00000000</v>
  </separator>
  <separator name="performance" >
   <i type="int" name="NPAR">     1</i>
   <i type="int" name="NSIM">     4</i>
   <i type="int" name="NBLK">    -1</i>
   <i type="logical" name="LPLANE"> T  </i>
   <i type="logical" name="LSCALAPACK"> T  </i>
   <i type="logical" name="LSCAAWARE"> F  </i>
   <i type="logical" name="LSCALU"> F  </i>
   <i type="logical" name="LASYNC"> F  </i>
   <i type="logical" name="LORBITALREAL"> F  </i>
  </separator>
  <separator name="miscellaneous" >
   <i type="int" name="IDIOT">     3</i>
   <i type="logical" name="LMUSIC"> F  </i>
   <v name="POMASS">     95.94000000     32.06600000</v>
   <v name="DARWINR">      0.00000000      0.00000000</v>
   <v name="DARWINV">      1.00000000      1.00000000</v>
   <i type="logical" name="LCORR"> T  </i>
  </separator>
  <i type="logical" name="GGA_COMPAT"> T  </i>
  <i type="logical" name="LBERRY"> F  </i>
  <i type="int" name="ICORELEVEL">     0</i>
  <i type="logical" name="LDAU"> F  </i>
  <i type="int" name="I_CONSTRAINED_M">     0</i>
  <separator name="electronic exchange-correlation" >
   <i type="string" name="GGA">--</i>
   <i type="int" name="VOSKOWN">     0</i>
   <i type="logical" name="LHFCALC"> T  </i>
   <i type="string" name="PRECFOCK">normal</i>
   <i type="logical" name="LSYMGRAD"> F  </i>
   <i type="logical" name="LHFONE"> F  </i>
   <i type="logical" name="LRHFCALC"> F  </i>
   <i type="logical" name="LTHOMAS"> F  </i>
   <i type="logical" name="LMODELHF"> F  </i>
   <i name="ENCUT4O">     -1.00000000</i>
   <i type="int" name="EXXOEP">     0</i>
   <i type="int" name="FOURORBIT">     0</i>
   <i name="AEXX">      1.00000000</i>
   <i name="HFALPHA">     -1.00000000</i>
   <i name="MCALPHA">      0.00000000</i>
   <i name="ALDAX">      0.00000000</i>
   <i name="AGGAX">      0.00000000</i>
   <i name="ALDAC">      0.00000000</i>
   <i name="AGGAC">      0.00000000</i>
   <i type="int" name="NKREDX">     1</i>
   <i type="int" name="NKREDY">     1</i>
   <i type="int" name="NKREDZ">     1</i>
   <i type="logical" name="SHIFTRED"> F  </i>
   <i type="logical" name="ODDONLY"> F  </i>
   <i type="logical" name="EVENONLY"> F  </i>
   <i type="int" name="LMAXFOCK">     4</i>
   <i type="int" name="NMAXFOCKAE">     1</i>
   <i type="logical" name="LFOCKAEDFT"> F  </i>
   <i name="HFSCREEN">      0.00000000</i>
   <i name="HFSCREENC">      0.00000000</i>
   <i type="int" name="NBANDSGWLOW">     1</i>
  </separator>
  <separator name="vdW DFT" >
   <i type="logical" name="LUSE_VDW"> F  </i>
   <i name="Zab_VDW">     -0.84910000</i>
   <i name="PARAM1">      0.12340000</i>
   <i name="PARAM2">      1.00000000</i>
   <i name="PARAM3">      0.00000000</i>
  </separator>
  <separator name="model GW" >
   <i type="int" name="MODEL_GW">     0</i>
   <i name="MODEL_EPS0">     12.03201675</i>
   <i name="MODEL_ALPHA">      1.00000000</i>
  </separator>
  <separator name="linear response parameters" >
   <i type="logical" name="LEPSILON"> F  </i>
   <i type="logical" name="LRPA"> F  </i>
   <i type="logical" name="LNABLA"> F  </i>
   <i type="logical" name="LVEL"> F  </i>
   <i type="int" name="KINTER">     0</i>
   <i name="CSHIFT">      0.10000000</i>
   <i name="OMEGAMAX">     -1.00000000</i>
   <i name="DEG_THRESHOLD">      0.00200000</i>
  </separator>
  <separator name="orbital magnetization" >
   <i type="logical" name="NUCIND"> F  </i>
   <v name="MAGPOS">      0.00000000      0.00000000      0.00000000</v>
   <i type="logical" name="LNICSALL"> T  </i>
   <i type="logical" name="ORBITALMAG"> F  </i>
   <i type="logical" name="LMAGBLOCH"> F  </i>
   <i type="logical" name="LCHIMAG"> F  </i>
   <i type="logical" name="LGAUGE"> T  </i>
   <i type="int" name="MAGATOM">     0</i>
   <v name="MAGDIPOL">      0.00000000      0.00000000      0.00000000</v>
   <v name="AVECCONST">      0.00000000      0.00000000      0.00000000</v>
  </separator>
  <separator name="response functions" >
   <i type="logical" name="LADDER"> F  </i>
   <i type="logical" name="LFXC"> F  </i>
   <i type="logical" name="LHARTREE"> T  </i>
   <i type="int" name="IBSE">     0</i>
   <i type="logical" name="LTCTE"> F  </i>
   <i type="logical" name="LTETE"> F  </i>
   <i type="logical" name="LTRIPLET"> F  </i>
   <i type="logical" name="LFXCEPS"> F  </i>
   <i type="logical" name="LFXHEG"> F  </i>
   <i type="logical" name="L2ORDER"> F  </i>
   <i type="logical" name="LUSEW"> F  </i>
   <i name="ENCUTGW">    229.94266667</i>
   <i name="ENCUTGWSOFT">     -2.00000000</i>
   <i name="ENCUTLF">     -1.00000000</i>
   <i type="int" name="LMAXMP2">    -1</i>
   <i name="SCISSOR">      0.00000000</i>
   <i type="int" name="NOMEGA">    50</i>
   <i type="int" name="NOMEGAR">    50</i>
   <i type="int" name="NBANDSGW">    -1</i>
   <i type="int" name="NBANDSO">    -1</i>
   <i type="int" name="NBANDSV">    -1</i>
   <i type="int" name="NELM">     1</i>
   <i type="int" name="DIM">     3</i>
   <i type="int" name="ANTIRES">     0</i>
   <i name="OMEGAMAX">    -30.00000000</i>
   <i name="OMEGAMIN">    -30.00000000</i>
   <i name="OMEGATL">   -200.00000000</i>
   <i type="int" name="OMEGAGRID">     0</i>
   <i name="CSHIFT">     -0.10000000</i>
   <i type="logical" name="SELFENERGY"> F  </i>
   <i type="logical" name="LSPECTRAL"> T  </i>
   <i type="logical" name="ODDONLYGW"> F  </i>
   <i type="logical" name="EVENONLYGW"> F  </i>
   <i type="int" name="NKREDLFX">     1</i>
   <i type="int" name="NKREDLFY">     1</i>
   <i type="int" name="NKREDLFZ">     1</i>
   <i type="int" name="MAXMEM">  8000</i>
   <i type="int" name="TELESCOPE">     0</i>
   <i type="int" name="TAUPAR">     1</i>
  </separator>
  <separator name="External order field" >
   <i name="OFIELD_KAPPA">      0.00000000</i>
   <v name="OFIELD_K">      0.00000000      0.00000000      0.00000000</v>
   <i name="OFIELD_Q6_NEAR">      0.00000000</i>
   <i name="OFIELD_Q6_FAR">      0.00000000</i>
   <i name="OFIELD_A">      0.00000000</i>
  </separator>
 </parameters>
 <atominfo>
  <atoms>       6 </atoms>
  <types>       2 </types>
  <array name="atoms" >
   <dimension dim="1">ion</dimension>
   <field type="string">element</field>
   <field type="int">atomtype</field>
   <set>
    <rc><c>Mo</c><c>   1</c></rc>
    <rc><c>Mo</c><c>   1</c></rc>
    <rc><c>S </c><c>   2</c></rc>
    <rc><c>S </c><c>   2</c></rc>
    <rc><c>S </c><c>   2</c></rc>
    <rc><c>S </c><c>   2</c></rc>
   </set>
  </array>
  <array name="atomtypes" >
   <dimension dim="1">type</dimension>
   <field type="int">atomspertype</field>
   <field type="string">element</field>
   <field>mass</field>
   <field>valence</field>
   <field type="string">pseudopotential</field>
   <set>
    <rc><c>   2</c><c>Mo</c><c>     95.94000000</c><c>     14.00000000</c><c>  PAW_PBE Mo_sv_GW 05Dec2013            </c></rc>
    <rc><c>   4</c><c>S </c><c>     32.06600000</c><c>      6.00000000</c><c>  PAW_PBE S_GW 19Mar2012                </c></rc>
   </set>
  </array>
 </atominfo>
 <structure name="initialpos" >
  <crystal>
   <varray name="basis" >
    <v>       3.17926782      -0.00000000       0.00000000 </v>
    <v>      -1.58963391       2.75332600       0.00000000 </v>
    <v>       0.00000000       0.00000000      13.74528273 </v>
   </varray>
   <i name="volume">    120.32016749 </i>
   <varray name="rec_basis" >
    <v>       0.31453783       0.18159855       0.00000000 </v>
    <v>       0.00000000       0.36319709       0.00000000 </v>
    <v>       0.00000000       0.00000000       0.07275223 </v>
   </varray>
  </crystal>
  <varray name="positions" >
   <v>       0.66666700       0.33333300       0.25000000 </v>
   <v>       0.33333300       0.66666700       0.75000000 </v>
   <v>       0.33333300       0.66666700       0.13608426 </v>
   <v>       0.66666700       0.33333300       0.63608426 </v>
   <v>       0.33333300       0.66666700       0.36391574 </v>
   <v>       0.66666700       0.33333300       0.86391574 </v>
  </varray>
 </structure>
 <kpoints>
  <generation param="Gamma">
   <v type="int" name="divisions">       5        5        5 </v>
   <v name="usershift">      0.00000000       0.00000000       0.00000000 </v>
   <v name="genvec1">      0.20000000       0.00000000       0.00000000 </v>
   <v name="genvec2">     -0.00000000       0.20000000       0.00000000 </v>
   <v name="genvec3">      0.00000000       0.00000000       0.20000000 </v>
   <v name="shift">      0.00000000       0.00000000       0.00000000 </v>
  </generation>
  <varray name="kpointlist" >
   <v>       0.00000000       0.00000000       0.00000000 </v>
   <v>       0.20000000       0.00000000       0.00000000 </v>
   <v>       0.40000000       0.00000000       0.00000000 </v>
   <v>      -0.40000000       0.00000000       0.00000000 </v>
   <v>      -0.20000000       0.00000000       0.00000000 </v>
   <v>       0.00000000       0.20000000       0.00000000 </v>
   <v>       0.20000000       0.20000000       0.00000000 </v>
   <v>       0.40000000       0.20000000       0.00000000 </v>
   <v>      -0.40000000       0.20000000       0.00000000 </v>
   <v>      -0.20000000       0.20000000       0.00000000 </v>
   <v>       0.00000000       0.40000000       0.00000000 </v>
   <v>       0.20000000       0.40000000       0.00000000 </v>
   <v>       0.40000000       0.40000000       0.00000000 </v>
   <v>      -0.40000000       0.40000000       0.00000000 </v>
   <v>      -0.20000000       0.40000000       0.00000000 </v>
   <v>       0.00000000      -0.40000000       0.00000000 </v>
   <v>       0.20000000      -0.40000000       0.00000000 </v>
   <v>       0.40000000      -0.40000000       0.00000000 </v>
   <v>      -0.40000000      -0.40000000       0.00000000 </v>
   <v>      -0.20000000      -0.40000000       0.00000000 </v>
   <v>       0.00000000      -0.20000000       0.00000000 </v>
   <v>       0.20000000      -0.20000000       0.00000000 </v>
   <v>       0.40000000      -0.20000000       0.00000000 </v>
   <v>      -0.40000000      -0.20000000       0.00000000 </v>
   <v>      -0.20000000      -0.20000000       0.00000000 </v>
   <v>       0.00000000       0.00000000       0.20000000 </v>
   <v>       0.20000000       0.00000000       0.20000000 </v>
   <v>       0.40000000       0.00000000       0.20000000 </v>
   <v>      -0.40000000       0.00000000       0.20000000 </v>
   <v>      -0.20000000       0.00000000       0.20000000 </v>
   <v>       0.00000000       0.20000000       0.20000000 </v>
   <v>       0.20000000       0.20000000       0.20000000 </v>
   <v>       0.40000000       0.20000000       0.20000000 </v>
   <v>      -0.40000000       0.20000000       0.20000000 </v>
   <v>      -0.20000000       0.20000000       0.20000000 </v>
   <v>       0.00000000       0.40000000       0.20000000 </v>
   <v>       0.20000000       0.40000000       0.20000000 </v>
   <v>       0.40000000       0.40000000       0.20000000 </v>
   <v>      -0.40000000       0.40000000       0.20000000 </v>
   <v>      -0.20000000       0.40000000       0.20000000 </v>
   <v>       0.00000000      -0.40000000       0.20000000 </v>
   <v>       0.20000000      -0.40000000       0.20000000 </v>
   <v>       0.40000000      -0.40000000       0.20000000 </v>
   <v>      -0.40000000      -0.40000000       0.20000000 </v>
   <v>      -0.20000000      -0.40000000       0.20000000 </v>
   <v>       0.00000000      -0.20000000       0.20000000 </v>
   <v>       0.20000000      -0.20000000       0.20000000 </v>
   <v>       0.40000000      -0.20000000       0.20000000 </v>
   <v>      -0.40000000      -0.20000000       0.20000000 </v>
   <v>      -0.20000000      -0.20000000       0.20000000 </v>
   <v>       0.00000000       0.00000000       0.40000000 </v>
   <v>       0.20000000       0.00000000       0.40000000 </v>
   <v>       0.40000000       0.00000000       0.40000000 </v>
   <v>      -0.40000000       0.00000000       0.40000000 </v>
   <v>      -0.20000000       0.00000000       0.40000000 </v>
   <v>       0.00000000       0.20000000       0.40000000 </v>
   <v>       0.20000000       0.20000000       0.40000000 </v>
   <v>       0.40000000       0.20000000       0.40000000 </v>
   <v>      -0.40000000       0.20000000       0.40000000 </v>
   <v>      -0.20000000       0.20000000       0.40000000 </v>
   <v>       0.00000000       0.40000000       0.40000000 </v>
   <v>       0.20000000       0.40000000       0.40000000 </v>
   <v>       0.40000000       0.40000000       0.40000000 </v>
   <v>      -0.40000000       0.40000000       0.40000000 </v>
   <v>      -0.20000000       0.40000000       0.40000000 </v>
   <v>       0.00000000      -0.40000000       0.40000000 </v>
   <v>       0.20000000      -0.40000000       0.40000000 </v>
   <v>       0.40000000      -0.40000000       0.40000000 </v>
   <v>      -0.40000000      -0.40000000       0.40000000 </v>
   <v>      -0.20000000      -0.40000000       0.40000000 </v>
   <v>       0.00000000      -0.20000000       0.40000000 </v>
   <v>       0.20000000      -0.20000000       0.40000000 </v>
   <v>       0.40000000      -0.20000000       0.40000000 </v>
   <v>      -0.40000000      -0.20000000       0.40000000 </v>
   <v>      -0.20000000      -0.20000000       0.40000000 </v>
   <v>       0.00000000       0.00000000      -0.40000000 </v>
   <v>       0.20000000       0.00000000      -0.40000000 </v>
   <v>       0.40000000       0.00000000      -0.40000000 </v>
   <v>      -0.40000000       0.00000000      -0.40000000 </v>
   <v>      -0.20000000       0.00000000      -0.40000000 </v>
   <v>       0.00000000       0.20000000      -0.40000000 </v>
   <v>       0.20000000       0.20000000      -0.40000000 </v>
   <v>       0.40000000       0.20000000      -0.40000000 </v>
   <v>      -0.40000000       0.20000000      -0.40000000 </v>
   <v>      -0.20000000       0.20000000      -0.40000000 </v>
   <v>       0.00000000       0.40000000      -0.40000000 </v>
   <v>       0.20000000       0.40000000      -0.40000000 </v>
   <v>       0.40000000       0.40000000      -0.40000000 </v>
   <v>      -0.40000000       0.40000000      -0.40000000 </v>
   <v>      -0.20000000       0.40000000      -0.40000000 </v>
   <v>       0.00000000      -0.40000000      -0.40000000 </v>
   <v>       0.20000000      -0.40000000      -0.40000000 </v>
   <v>       0.40000000      -0.40000000      -0.40000000 </v>
   <v>      -0.40000000      -0.40000000      -0.40000000 </v>
   <v>      -0.20000000      -0.40000000      -0.40000000 </v>
   <v>       0.00000000      -0.20000000      -0.40000000 </v>
   <v>       0.20000000      -0.20000000      -0.40000000 </v>
   <v>       0.40000000      -0.20000000      -0.40000000 </v>
   <v>      -0.40000000      -0.20000000      -0.40000000 </v>
   <v>      -0.20000000      -0.20000000      -0.40000000 </v>
   <v>       0.00000000       0.00000000      -0.20000000 </v>
   <v>       0.20000000       0.00000000      -0.20000000 </v>
   <v>       0.40000000       0.00000000      -0.20000000 </v>
   <v>      -0.40000000       0.00000000      -0.20000000 </v>
   <v>      -0.20000000       0.00000000      -0.20000000 </v>
   <v>       0.00000000       0.20000000      -0.20000000 </v>
   <v>       0.20000000       0.20000000      -0.20000000 </v>
   <v>       0.40000000       0.20000000      -0.20000000 </v>
   <v>      -0.40000000       0.20000000      -0.20000000 </v>
   <v>      -0.20000000       0.20000000      -0.20000000 </v>
   <v>       0.00000000       0.40000000      -0.20000000 </v>
   <v>       0.20000000       0.40000000      -0.20000000 </v>
   <v>       0.40000000       0.40000000      -0.20000000 </v>
   <v>      -0.40000000       0.40000000      -0.20000000 </v>
   <v>      -0.20000000       0.40000000      -0.20000000 </v>
   <v>       0.00000000      -0.40000000      -0.20000000 </v>
   <v>       0.20000000      -0.40000000      -0.20000000 </v>
   <v>       0.40000000      -0.40000000      -0.20000000 </v>
   <v>      -0.40000000      -0.40000000      -0.20000000 </v>
   <v>      -0.20000000      -0.40000000      -0.20000000 </v>
   <v>       0.00000000      -0.20000000      -0.20000000 </v>
   <v>       0.20000000      -0.20000000      -0.20000000 </v>
   <v>       0.40000000      -0.20000000      -0.20000000 </v>
   <v>      -0.40000000      -0.20000000      -0.20000000 </v>
   <v>      -0.20000000      -0.20000000      -0.20000000 </v>
  </varray>
  <varray name="weights" >
   <v>       0.00800000 </v>
   <v>       0.00800000 </v>
   <v>       0.00800000 </v>
   <v>       0.00800000 </v>
   <v>       0.00800000 </v>
   <v>       0.00800000 </v>
   <v>       0.00800000 </v>
   <v>       0.00800000 </v>
   <v>       0.00800000 </v>
   <v>       0.00800000 </v>
   <v>       0.00800000 </v>
   <v>       0.00800000 </v>
   <v>       0.00800000 </v>
   <v>       0.00800000 </v>
   <v>       0.00800000 </v>
   <v>       0.00800000 </v>
   <v>       0.00800000 </v>
   <v>       0.00800000 </v>
   <v>       0.00800000 </v>
   <v>       0.00800000 </v>
   <v>       0.00800000 </v>
   <v>       0.00800000 </v>
   <v>       0.00800000 </v>
   <v>       0.00800000 </v>
   <v>       0.00800000 </v>
   <v>       0.00800000 </v>
   <v>       0.00800000 </v>
   <v>       0.00800000 </v>
   <v>       0.00800000 </v>
   <v>       0.00800000 </v>
   <v>       0.00800000 </v>
   <v>       0.00800000 </v>
   <v>       0.00800000 </v>
   <v>       0.00800000 </v>
   <v>       0.00800000 </v>
   <v>       0.00800000 </v>
   <v>       0.00800000 </v>
   <v>       0.00800000 </v>
   <v>       0.00800000 </v>
   <v>       0.00800000 </v>
   <v>       0.00800000 </v>
   <v>       0.00800000 </v>
   <v>       0.00800000 </v>
   <v>       0.00800000 </v>
   <v>       0.00800000 </v>
   <v>       0.00800000 </v>
   <v>       0.00800000 </v>
   <v>       0.00800000 </v>
   <v>       0.00800000 </v>
   <v>       0.00800000 </v>
   <v>       0.00800000 </v>
   <v>       0.00800000 </v>
   <v>       0.00800000 </v>
   <v>       0.00800000 </v>
   <v>       0.00800000 </v>
   <v>       0.00800000 </v>
   <v>       0.00800000 </v>
   <v>       0.00800000 </v>
   <v>       0.00800000 </v>
   <v>       0.00800000 </v>
   <v>       0.00800000 </v>
   <v>       0.00800000 </v>
   <v>       0.00800000 </v>
   <v>       0.00800000 </v>
   <v>       0.00800000 </v>
   <v>       0.00800000 </v>
   <v>       0.00800000 </v>
   <v>       0.00800000 </v>
   <v>       0.00800000 </v>
   <v>       0.00800000 </v>
   <v>       0.00800000 </v>
   <v>       0.00800000 </v>
   <v>       0.00800000 </v>
   <v>       0.00800000 </v>
   <v>       0.00800000 </v>
   <v>       0.00800000 </v>
   <v>       0.00800000 </v>
   <v>       0.00800000 </v>
   <v>       0.00800000 </v>
   <v>       0.00800000 </v>
   <v>       0.00800000 </v>
   <v>       0.00800000 </v>
   <v>       0.00800000 </v>
   <v>       0.00800000 </v>
   <v>       0.00800000 </v>
   <v>       0.00800000 </v>
   <v>       0.00800000 </v>
   <v>       0.00800000 </v>
   <v>       0.00800000 </v>
   <v>       0.00800000 </v>
   <v>       0.00800000 </v>
   <v>       0.00800000 </v>
   <v>       0.00800000 </v>
   <v>       0.00800000 </v>
   <v>       0.00800000 </v>
   <v>       0.00800000 </v>
   <v>       0.00800000 </v>
   <v>       0.00800000 </v>
   <v>       0.00800000 </v>
   <v>       0.00800000 </v>
   <v>       0.00800000 </v>
   <v>       0.00800000 </v>
   <v>       0.00800000 </v>
   <v>       0.00800000 </v>
   <v>       0.00800000 </v>
   <v>       0.00800000 </v>
   <v>       0.00800000 </v>
   <v>       0.00800000 </v>
   <v>       0.00800000 </v>
   <v>       0.00800000 </v>
   <v>       0.00800000 </v>
   <v>       0.00800000 </v>
   <v>       0.00800000 </v>
   <v>       0.00800000 </v>
   <v>       0.00800000 </v>
   <v>       0.00800000 </v>
   <v>       0.00800000 </v>
   <v>       0.00800000 </v>
   <v>       0.00800000 </v>
   <v>       0.00800000 </v>
   <v>       0.00800000 </v>
   <v>       0.00800000 </v>
   <v>       0.00800000 </v>
   <v>       0.00800000 </v>
   <v>       0.00800000 </v>
  </varray>
 </kpoints>
 <dielectricfunction comment="HEAD OF MICROSCOPIC DIELECTRIC TENSOR (INDEPENDENT PARTICLE)">
  <imag>
   <array>
    <dimension dim="1">gridpoints</dimension>
    <field>energy</field>
    <field>xx</field>
    <field>yy</field>
    <field>zz</field>
    <field>xy</field>
    <field>yz</field>
    <field>zx</field>
    <set>
     <r>     0.0000     0.0000     0.0000     0.0000    -0.0000     0.0000     0.0000 </r>
     <r>     1.7042     2.9994     2.9994     0.6892    -0.0000     0.0000     0.0000 </r>
     <r>     3.4022     7.3662     7.3662     2.0982    -0.0000     0.0000     0.0000 </r>
     <r>     5.0880     8.4366     8.4366     4.6236     0.0000    -0.0000    -0.0000 </r>
     <r>     6.7562     7.0256     7.0256     6.8214     0.0000    -0.0000    -0.0000 </r>
     <r>     8.4029     5.0836     5.0836     6.3423     0.0000    -0.0000    -0.0000 </r>
     <r>    10.0247     3.9155     3.9155     5.5531     0.0000    -0.0000    -0.0000 </r>
     <r>    11.6195     3.4268     3.4268     4.3989     0.0000     0.0000     0.0000 </r>
     <r>    13.1864     2.7898     2.7898     3.2229    -0.0000     0.0000     0.0000 </r>
     <r>    14.7257     2.2312     2.2312     2.3718    -0.0000    -0.0000    -0.0000 </r>
     <r>    16.2384     1.6807     1.6807     1.6308    -0.0000     0.0000     0.0000 </r>
     <r>    17.7264     1.1682     1.1682     1.0645    -0.0000     0.0000     0.0000 </r>
     <r>    19.1925     0.7537     0.7537     0.7099    -0.0000     0.0000     0.0000 </r>
     <r>    20.6398     0.5214     0.5214     0.4956    -0.0000     0.0000     0.0000 </r>
     <r>    22.0722     0.3984     0.3984     0.3659    -0.0000     0.0000     0.0000 </r>
     <r>    23.4934     0.3159     0.3159     0.2897    -0.0000     0.0000     0.0000 </r>
     <r>    24.9081     0.2611     0.2611     0.2461    -0.0000    -0.0000    -0.0000 </r>
     <r>    26.3212     0.2253     0.2253     0.2265    -0.0000    -0.0000    -0.0000 </r>
     <r>    27.7379     0.1982     0.1982     0.2064     0.0000    -0.0000    -0.0000 </r>
     <r>    29.1637     0.1829     0.1829     0.1821     0.0000    -0.0000    -0.0000 </r>
     <r>    30.6044     0.1779     0.1779     0.1646     0.0000    -0.0000    -0.0000 </r>
     <r>    32.0668     0.1803     0.1803     0.1596     0.0000     0.0000     0.0000 </r>
     <r>    33.5579     0.1853     0.1853     0.1635    -0.0000    -0.0000    -0.0000 </r>
     <r>    35.0854     0.2048     0.2048     0.1796    -0.0000    -0.0000    -0.0000 </r>
     <r>    36.6578     0.2966     0.2966     0.2495     0.0000    -0.0000    -0.0000 </r>
     <r>    38.2846     0.4841     0.4841     0.4047    -0.0000     0.0000     0.0000 </r>
     <r>    39.9775     0.4544     0.4544     0.4330    -0.0000    -0.0000    -0.0000 </r>
     <r>    41.7479     0.2680     0.2680     0.2872    -0.0000    -0.0000    -0.0000 </r>
     <r>    43.6112     0.1637     0.1637     0.1750    -0.0000    -0.0000    -0.0000 </r>
     <r>    45.5835     0.1175     0.1175     0.1192    -0.0000     0.0000     0.0000 </r>
     <r>    47.6850     0.0872     0.0872     0.0840    -0.0000     0.0000     0.0000 </r>
     <r>    49.9389     0.0615     0.0615     0.0631    -0.0000     0.0000     0.0000 </r>
     <r>    52.3747     0.0411     0.0411     0.0432    -0.0000    -0.0000    -0.0000 </r>
     <r>    55.0257     0.0304     0.0303     0.0299    -0.0000    -0.0000    -0.0000 </r>
     <r>    57.9354     0.0259     0.0258     0.0245    -0.0000     0.0000     0.0000 </r>
     <r>    61.1562     0.0196     0.0196     0.0189    -0.0000    -0.0000    -0.0000 </r>
     <r>    64.7565     0.0144     0.0144     0.0140    -0.0000    -0.0000    -0.0000 </r>
     <r>    68.8211     0.0103     0.0103     0.0104    -0.0000     0.0000     0.0000 </r>
     <r>    73.4628     0.0079     0.0078     0.0076    -0.0000    -0.0000    -0.0000 </r>
     <r>    78.8306     0.0055     0.0055     0.0053    -0.0000    -0.0000    -0.0000 </r>
     <r>    85.1256     0.0036     0.0036     0.0036    -0.0000    -0.0000    -0.0000 </r>
     <r>    92.6291     0.0028     0.0028     0.0028    -0.0000    -0.0000    -0.0000 </r>
     <r>   101.7405     0.0019     0.0019     0.0020    -0.0000    -0.0000    -0.0000 </r>
     <r>   113.0531     0.0011     0.0011     0.0011    -0.0000    -0.0000    -0.0000 </r>
     <r>   127.4816     0.0007     0.0007     0.0007    -0.0000     0.0000     0.0000 </r>
     <r>   146.5158     0.0005     0.0005     0.0005    -0.0000     0.0000     0.0000 </r>
     <r>   172.7561     0.0003     0.0003     0.0003    -0.0000     0.0000     0.0000 </r>
     <r>   211.1832     0.0002     0.0002     0.0002    -0.0000     0.0000    -0.0000 </r>
     <r>   272.6925     0.0001     0.0001     0.0001    -0.0000     0.0000    -0.0000 </r>
     <r>   386.5860     0.0000     0.0000     0.0000    -0.0000     0.0000    -0.0000 </r>
    </set>
   </array>
  </imag>
  <real>
   <array>
    <dimension dim="1">gridpoints</dimension>
    <field>energy</field>
    <field>xx</field>
    <field>yy</field>
    <field>zz</field>
    <field>xy</field>
    <field>yz</field>
    <field>zx</field>
    <set>
     <r>     0.0000    10.9159    10.9159     6.7932    -0.0000     0.0000     0.0000 </r>
     <r>     1.7042    11.1698    11.1697     7.0647    -0.0000     0.0000     0.0000 </r>
     <r>     3.4022     8.9025     8.9025     7.6057     0.0000    -0.0000    -0.0000 </r>
     <r>     5.0880     4.3510     4.3510     7.3129     0.0000    -0.0000    -0.0000 </r>
     <r>     6.7562     1.2382     1.2382     4.7235     0.0000    -0.0000    -0.0000 </r>
     <r>     8.4029     0.0177     0.0177     1.9873    -0.0000    -0.0000    -0.0000 </r>
     <r>    10.0247    -0.0865    -0.0865     0.4789    -0.0000     0.0000     0.0000 </r>
     <r>    11.6195    -0.3034    -0.3034    -0.6508    -0.0000     0.0000     0.0000 </r>
     <r>    13.1864    -0.6118    -0.6118    -1.0453    -0.0000    -0.0000    -0.0000 </r>
     <r>    14.7257    -0.7359    -0.7359    -1.1222    -0.0000    -0.0000    -0.0000 </r>
     <r>    16.2384    -0.7987    -0.7987    -1.0655    -0.0000     0.0000     0.0000 </r>
     <r>    17.7264    -0.7209    -0.7209    -0.8253    -0.0000    -0.0000    -0.0000 </r>
     <r>    19.1925    -0.5070    -0.5070    -0.5367    -0.0000    -0.0000    -0.0000 </r>
     <r>    20.6398    -0.2451    -0.2451    -0.2795    -0.0000    -0.0000    -0.0000 </r>
     <r>    22.0722    -0.0417    -0.0417    -0.0640    -0.0000    -0.0000    -0.0000 </r>
     <r>    23.4934     0.1160     0.1160     0.1104    -0.0000    -0.0000    -0.0000 </r>
     <r>    24.9081     0.2475     0.2475     0.2512    -0.0000    -0.0000    -0.0000 </r>
     <r>    26.3212     0.3545     0.3545     0.3571    -0.0000    -0.0000    -0.0000 </r>
     <r>    27.7379     0.4459     0.4459     0.4337    -0.0000    -0.0000    -0.0000 </r>
     <r>    29.1637     0.5280     0.5280     0.5034    -0.0000    -0.0000    -0.0000 </r>
     <r>    30.6044     0.5996     0.5996     0.5742    -0.0000    -0.0000    -0.0000 </r>
     <r>    32.0668     0.6610     0.6610     0.6415    -0.0000    -0.0000    -0.0000 </r>
     <r>    33.5579     0.7199     0.7199     0.7040    -0.0000    -0.0000    -0.0000 </r>
     <r>    35.0854     0.7914     0.7914     0.7722    -0.0000    -0.0000    -0.0000 </r>
     <r>    36.6578     0.8766     0.8766     0.8517    -0.0000     0.0000     0.0000 </r>
     <r>    38.2846     0.7944     0.7944     0.8183    -0.0000    -0.0000    -0.0000 </r>
     <r>    39.9775     0.5699     0.5699     0.6381    -0.0000    -0.0000    -0.0000 </r>
     <r>    41.7479     0.5058     0.5058     0.5413    -0.0000     0.0000     0.0000 </r>
     <r>    43.6112     0.5675     0.5675     0.5759    -0.0000     0.0000     0.0000 </r>
     <r>    45.5835     0.6196     0.6196     0.6240    -0.0000     0.0000     0.0000 </r>
     <r>    47.6850     0.6598     0.6598     0.6672    -0.0000     0.0000     0.0000 </r>
     <r>    49.9389     0.6953     0.6953     0.7042    -0.0000    -0.0000    -0.0000 </r>
     <r>    52.3747     0.7321     0.7321     0.7364    -0.0000    -0.0000    -0.0000 </r>
     <r>    55.0257     0.7678     0.7678     0.7706    -0.0000     0.0000     0.0000 </r>
     <r>    57.9354     0.7959     0.7959     0.7995    -0.0000     0.0000     0.0000 </r>
     <r>    61.1562     0.8190     0.8190     0.8229     0.0000    -0.0000    -0.0000 </r>
     <r>    64.7565     0.8414     0.8414     0.8449     0.0000     0.0000     0.0000 </r>
     <r>    68.8211     0.8622     0.8622     0.8651     0.0000     0.0000     0.0000 </r>
     <r>    73.4628     0.8812     0.8812     0.8835     0.0000    -0.0000    -0.0000 </r>
     <r>    78.8306     0.8982     0.8982     0.9004     0.0000    -0.0000    -0.0000 </r>
     <r>    85.1256     0.9142     0.9142     0.9160     0.0000    -0.0000    -0.0000 </r>
     <r>    92.6291     0.9287     0.9287     0.9302     0.0000    -0.0000    -0.0000 </r>
     <r>   101.7405     0.9415     0.9415     0.9426     0.0000     0.0000     0.0000 </r>
     <r>   113.0531     0.9531     0.9531     0.9541     0.0000    -0.0000     0.0000 </r>
     <r>   127.4816     0.9636     0.9636     0.9643     0.0000    -0.0000    -0.0000 </r>
     <r>   146.5158     0.9727     0.9727     0.9733     0.0000    -0.0000    -0.0000 </r>
     <r>   172.7561     0.9805     0.9805     0.9809     0.0000    -0.0000    -0.0000 </r>
     <r>   211.1832     0.9870     0.9870     0.9873     0.0000    -0.0000    -0.0000 </r>
     <r>   272.6925     0.9923     0.9923     0.9924     0.0000    -0.0000    -0.0000 </r>
     <r>   386.5860     0.9962     0.9962     0.9962     0.0000    -0.0000    -0.0000 </r>
    </set>
   </array>
  </real>
 </dielectricfunction>
 <varray name="epsilon_diag_mic" >
  <v>       0.00000000       9.54167450 </v>
  <v>       2.28203421       1.67158443 </v>
  <v>       4.56406841       1.06257984 </v>
  <v>       6.84610262       1.00587324 </v>
  <v>       6.84610262       1.00587324 </v>
  <v>       4.56406841       1.06257984 </v>
  <v>       2.28203421       1.67158443 </v>
  <v>       2.28203464       1.67158399 </v>
  <v>       3.95259969       1.11692596 </v>
  <v>       6.03769548       1.01290100 </v>
  <v>       6.03769467       1.01290193 </v>
  <v>       3.95259894       1.11693853 </v>
  <v>       2.28203421       1.67160326 </v>
  <v>       4.56406928       1.06257976 </v>
  <v>       6.03769597       1.01290095 </v>
  <v>       6.03769467       1.01290311 </v>
  <v>       4.56406841       1.06258536 </v>
  <v>       3.95259969       1.11693836 </v>
  <v>       6.84610391       1.00587323 </v>
  <v>       6.84610262       1.00587389 </v>
  <v>       6.03769548       1.01290307 </v>
  <v>       6.03769597       1.01290194 </v>
  <v>       6.84610391       1.00587323 </v>
  <v>       6.03769597       1.01290194 </v>
  <v>       6.03769548       1.01290307 </v>
  <v>       6.84610262       1.00587389 </v>
  <v>       4.56406928       1.06257976 </v>
  <v>       3.95259969       1.11693836 </v>
  <v>       4.56406841       1.06258536 </v>
  <v>       6.03769467       1.01290311 </v>
  <v>       6.03769597       1.01290095 </v>
  <v>       2.28203464       1.67158399 </v>
  <v>       2.28203421       1.67160326 </v>
  <v>       3.95259894       1.11693853 </v>
  <v>       6.03769467       1.01290193 </v>
  <v>       6.03769548       1.01290100 </v>
  <v>       3.95259969       1.11692596 </v>
  <v>       0.45711576       5.94639938 </v>
  <v>       2.32736652       1.63137805 </v>
  <v>       4.58690258       1.06141853 </v>
  <v>       6.86134651       1.00577364 </v>
  <v>       6.86134651       1.00577364 </v>
  <v>       4.58690258       1.06141853 </v>
  <v>       2.32736652       1.63137809 </v>
  <v>       2.32736695       1.63137767 </v>
  <v>       3.97894447       1.11381864 </v>
  <v>       6.05497494       1.01264460 </v>
  <v>       6.05497413       1.01264563 </v>
  <v>       3.97894373       1.11383034 </v>
  <v>       2.32736652       1.63139588 </v>
  <v>       4.58690344       1.06141846 </v>
  <v>       6.05497543       1.01264456 </v>
  <v>       6.05497413       1.01264681 </v>
  <v>       4.58690258       1.06142321 </v>
  <v>       3.97894447       1.11383019 </v>
  <v>       6.86134780       1.00577364 </v>
  <v>       6.86134651       1.00577423 </v>
  <v>       6.05497494       1.01264677 </v>
  <v>       6.05497543       1.01264563 </v>
  <v>       6.86134780       1.00577364 </v>
  <v>       6.05497543       1.01264563 </v>
  <v>       6.05497494       1.01264677 </v>
  <v>       6.86134651       1.00577423 </v>
  <v>       4.58690344       1.06141846 </v>
  <v>       3.97894447       1.11383018 </v>
  <v>       4.58690258       1.06142321 </v>
  <v>       6.05497413       1.01264681 </v>
  <v>       6.05497543       1.01264456 </v>
  <v>       2.32736695       1.63137766 </v>
  <v>       2.32736652       1.63139590 </v>
  <v>       3.97894373       1.11383035 </v>
  <v>       6.05497413       1.01264563 </v>
  <v>       6.05497494       1.01264460 </v>
  <v>       3.97894447       1.11381865 </v>
  <v>       0.91423151       4.40906156 </v>
  <v>       2.45835298       1.53054518 </v>
  <v>       4.65473305       1.05759810 </v>
  <v>       6.90687631       1.00549791 </v>
  <v>       6.90687631       1.00549791 </v>
  <v>       4.65473305       1.05759811 </v>
  <v>       2.45835298       1.53054528 </v>
  <v>       2.45835338       1.53054494 </v>
  <v>       4.05695250       1.10557611 </v>
  <v>       6.10651996       1.01192050 </v>
  <v>       6.10651915       1.01192164 </v>
  <v>       4.05695177       1.10558702 </v>
  <v>       2.45835298       1.53056065 </v>
  <v>       4.65473389       1.05759805 </v>
  <v>       6.10652044       1.01192047 </v>
  <v>       6.10651915       1.01192269 </v>
  <v>       4.65473305       1.05760176 </v>
  <v>       4.05695250       1.10558690 </v>
  <v>       6.90687759       1.00549790 </v>
  <v>       6.90687631       1.00549842 </v>
  <v>       6.10651996       1.01192267 </v>
  <v>       6.10652044       1.01192164 </v>
  <v>       6.90687759       1.00549790 </v>
  <v>       6.10652044       1.01192163 </v>
  <v>       6.10651996       1.01192266 </v>
  <v>       6.90687631       1.00549842 </v>
  <v>       4.65473389       1.05759805 </v>
  <v>       4.05695250       1.10558688 </v>
  <v>       4.65473305       1.05760177 </v>
  <v>       6.10651915       1.01192270 </v>
  <v>       6.10652044       1.01192047 </v>
  <v>       2.45835338       1.53054487 </v>
  <v>       2.45835298       1.53056073 </v>
  <v>       4.05695177       1.10558705 </v>
  <v>       6.10651915       1.01192165 </v>
  <v>       6.10651996       1.01192050 </v>
  <v>       4.05695250       1.10557614 </v>
  <v>       1.37134727       3.08958411 </v>
  <v>       2.66238116       1.41533647 </v>
  <v>       4.76563887       1.05091411 </v>
  <v>       6.98209957       1.00510353 </v>
  <v>       6.98209957       1.00510353 </v>
  <v>       4.76563887       1.05091412 </v>
  <v>       2.66238116       1.41533655 </v>
  <v>       2.66238153       1.41533628 </v>
  <v>       4.18373489       1.09408325 </v>
  <v>       6.19147479       1.01084850 </v>
  <v>       6.19147399       1.01084970 </v>
  <v>       4.18373418       1.09409247 </v>
  <v>       2.66238116       1.41535146 </v>
  <v>       4.76563969       1.05091407 </v>
  <v>       6.19147527       1.01084849 </v>
  <v>       6.19147399       1.01085048 </v>
  <v>       4.76563887       1.05091756 </v>
  <v>       4.18373489       1.09409239 </v>
  <v>       6.98210084       1.00510353 </v>
  <v>       6.98209957       1.00510396 </v>
  <v>       6.19147479       1.01085046 </v>
  <v>       6.19147527       1.01084968 </v>
  <v>       6.98210084       1.00510352 </v>
  <v>       6.19147527       1.01084968 </v>
  <v>       6.19147479       1.01085046 </v>
  <v>       6.98209957       1.00510396 </v>
  <v>       4.76563969       1.05091407 </v>
  <v>       4.18373489       1.09409234 </v>
  <v>       4.76563887       1.05091756 </v>
  <v>       6.19147399       1.01085049 </v>
  <v>       6.19147527       1.01084849 </v>
  <v>       2.66238153       1.41533622 </v>
  <v>       2.66238116       1.41535153 </v>
  <v>       4.18373418       1.09409252 </v>
  <v>       6.19147399       1.01084970 </v>
  <v>       6.19147479       1.01084851 </v>
  <v>       4.18373489       1.09408328 </v>
  <v>       1.82846302       2.21062567 </v>
  <v>       2.92420197       1.31641860 </v>
  <v>       4.91670596       1.04245997 </v>
  <v>       7.08607071       1.00463247 </v>
  <v>       7.08607071       1.00463247 </v>
  <v>       4.91670596       1.04245998 </v>
  <v>       2.92420197       1.31641861 </v>
  <v>       2.92420230       1.31641843 </v>
  <v>       4.35503402       1.07999547 </v>
  <v>       6.30848982       1.00958460 </v>
  <v>       6.30848904       1.00958576 </v>
  <v>       4.35503334       1.08000246 </v>
  <v>       2.92420197       1.31642831 </v>
  <v>       4.91670676       1.04245993 </v>
  <v>       6.30849029       1.00958459 </v>
  <v>       6.30848904       1.00958622 </v>
  <v>       4.91670596       1.04246352 </v>
  <v>       4.35503402       1.08000242 </v>
  <v>       7.08607196       1.00463247 </v>
  <v>       7.08607071       1.00463286 </v>
  <v>       6.30848982       1.00958621 </v>
  <v>       6.30849029       1.00958575 </v>
  <v>       7.08607196       1.00463247 </v>
  <v>       6.30849029       1.00958574 </v>
  <v>       6.30848982       1.00958620 </v>
  <v>       7.08607071       1.00463286 </v>
  <v>       4.91670676       1.04245993 </v>
  <v>       4.35503402       1.08000237 </v>
  <v>       4.91670596       1.04246352 </v>
  <v>       6.30848904       1.00958622 </v>
  <v>       6.30849029       1.00958460 </v>
  <v>       2.92420230       1.31641844 </v>
  <v>       2.92420197       1.31642831 </v>
  <v>       4.35503334       1.08000251 </v>
  <v>       6.30848904       1.00958577 </v>
  <v>       6.30848982       1.00958460 </v>
  <v>       4.35503402       1.07999550 </v>
  <v>       2.28557878       1.69471983 </v>
  <v>       3.22979109       1.23719995 </v>
  <v>       5.10436978       1.03404147 </v>
  <v>       7.21754747       1.00411120 </v>
  <v>       7.21754747       1.00411120 </v>
  <v>       5.10436978       1.03404148 </v>
  <v>       3.22979109       1.23719995 </v>
  <v>       3.22979139       1.23719985 </v>
  <v>       4.56584216       1.06421687 </v>
  <v>       6.45582195       1.00825808 </v>
  <v>       6.45582119       1.00825901 </v>
  <v>       4.56584152       1.06422148 </v>
  <v>       3.22979109       1.23720477 </v>
  <v>       5.10437055       1.03404144 </v>
  <v>       6.45582241       1.00825808 </v>
  <v>       6.45582119       1.00825922 </v>
  <v>       5.10436978       1.03404391 </v>
  <v>       4.56584216       1.06422144 </v>
  <v>       7.21754869       1.00411119 </v>
  <v>       7.21754747       1.00411156 </v>
  <v>       6.45582195       1.00825921 </v>
  <v>       6.45582241       1.00825899 </v>
  <v>       7.21754869       1.00411119 </v>
  <v>       6.45582241       1.00825899 </v>
  <v>       6.45582195       1.00825921 </v>
  <v>       7.21754747       1.00411156 </v>
  <v>       5.10437055       1.03404144 </v>
  <v>       4.56584216       1.06422141 </v>
  <v>       5.10436978       1.03404392 </v>
  <v>       6.45582119       1.00825922 </v>
  <v>       6.45582241       1.00825808 </v>
  <v>       3.22979139       1.23719986 </v>
  <v>       3.22979109       1.23720476 </v>
  <v>       4.56584152       1.06422151 </v>
  <v>       6.45582119       1.00825901 </v>
  <v>       6.45582195       1.00825808 </v>
  <v>       4.56584216       1.06421689 </v>
  <v>       2.74269454       1.40616818 </v>
  <v>       3.56792004       1.17352430 </v>
  <v>       5.32476232       1.02675663 </v>
  <v>       7.37505894       1.00356338 </v>
  <v>       7.37505894       1.00356338 </v>
  <v>       5.32476232       1.02675664 </v>
  <v>       3.56792004       1.17352430 </v>
  <v>       3.56792032       1.17352422 </v>
  <v>       4.81096847       1.04881536 </v>
  <v>       6.63145083       1.00696337 </v>
  <v>       6.63145008       1.00696414 </v>
  <v>       4.81096786       1.04881809 </v>
  <v>       3.56792004       1.17352819 </v>
  <v>       5.32476306       1.02675661 </v>
  <v>       6.63145127       1.00696337 </v>
  <v>       6.63145008       1.00696418 </v>
  <v>       5.32476232       1.02675822 </v>
  <v>       4.81096847       1.04881806 </v>
  <v>       7.37506014       1.00356337 </v>
  <v>       7.37505894       1.00356373 </v>
  <v>       6.63145083       1.00696417 </v>
  <v>       6.63145127       1.00696413 </v>
  <v>       7.37506014       1.00356337 </v>
  <v>       6.63145127       1.00696413 </v>
  <v>       6.63145083       1.00696418 </v>
  <v>       7.37505894       1.00356373 </v>
  <v>       5.32476306       1.02675661 </v>
  <v>       4.81096847       1.04881805 </v>
  <v>       5.32476232       1.02675822 </v>
  <v>       6.63145008       1.00696418 </v>
  <v>       6.63145127       1.00696337 </v>
  <v>       3.56792032       1.17352424 </v>
  <v>       3.56792004       1.17352818 </v>
  <v>       4.81096786       1.04881809 </v>
  <v>       6.63145008       1.00696414 </v>
  <v>       6.63145083       1.00696337 </v>
  <v>       4.81096847       1.04881536 </v>
  <v>       3.19981029       1.24589812 </v>
  <v>       3.93019923       1.12249772 </v>
  <v>       5.57400273       1.02062694 </v>
  <v>       7.55697737       1.00302689 </v>
  <v>       7.55697737       1.00302689 </v>
  <v>       5.57400273       1.02062694 </v>
  <v>       3.93019923       1.12249772 </v>
  <v>       3.93019949       1.12249767 </v>
  <v>       5.08545280       1.03568795 </v>
  <v>       6.83319491       1.00576243 </v>
  <v>       6.83319419       1.00576302 </v>
  <v>       5.08545222       1.03569005 </v>
  <v>       3.93019923       1.12250141 </v>
  <v>       5.57400343       1.02062693 </v>
  <v>       6.83319534       1.00576243 </v>
  <v>       6.83319419       1.00576309 </v>
  <v>       5.57400273       1.02062788 </v>
  <v>       5.08545280       1.03569002 </v>
  <v>       7.55697854       1.00302688 </v>
  <v>       7.55697737       1.00302721 </v>
  <v>       6.83319491       1.00576308 </v>
  <v>       6.83319534       1.00576301 </v>
  <v>       7.55697854       1.00302689 </v>
  <v>       6.83319534       1.00576301 </v>
  <v>       6.83319491       1.00576308 </v>
  <v>       7.55697737       1.00302721 </v>
  <v>       5.57400343       1.02062692 </v>
  <v>       5.08545280       1.03569002 </v>
  <v>       5.57400273       1.02062789 </v>
  <v>       6.83319419       1.00576309 </v>
  <v>       6.83319534       1.00576242 </v>
  <v>       3.93019949       1.12249768 </v>
  <v>       3.93019923       1.12250140 </v>
  <v>       5.08545222       1.03569005 </v>
  <v>       6.83319419       1.00576302 </v>
  <v>       6.83319491       1.00576243 </v>
  <v>       5.08545280       1.03568794 </v>
  <v>       3.65692605       1.15356392 </v>
  <v>       4.31054385       1.08323144 </v>
  <v>       5.84840394       1.01542759 </v>
  <v>       7.76158677       1.00253071 </v>
  <v>       7.76158677       1.00253071 </v>
  <v>       5.84840394       1.01542759 </v>
  <v>       4.31054385       1.08323144 </v>
  <v>       4.31054407       1.08323140 </v>
  <v>       5.38480756       1.02549293 </v>
  <v>       7.05881540       1.00469480 </v>
  <v>       7.05881470       1.00469524 </v>
  <v>       5.38480701       1.02549461 </v>
  <v>       4.31054385       1.08323418 </v>
  <v>       5.84840461       1.01542758 </v>
  <v>       7.05881582       1.00469480 </v>
  <v>       7.05881470       1.00469540 </v>
  <v>       5.84840394       1.01542830 </v>
  <v>       5.38480756       1.02549457 </v>
  <v>       7.76158791       1.00253071 </v>
  <v>       7.76158677       1.00253099 </v>
  <v>       7.05881540       1.00469539 </v>
  <v>       7.05881582       1.00469523 </v>
  <v>       7.76158791       1.00253071 </v>
  <v>       7.05881582       1.00469523 </v>
  <v>       7.05881540       1.00469540 </v>
  <v>       7.76158677       1.00253099 </v>
  <v>       5.84840461       1.01542758 </v>
  <v>       5.38480756       1.02549458 </v>
  <v>       5.84840394       1.01542830 </v>
  <v>       7.05881470       1.00469540 </v>
  <v>       7.05881582       1.00469479 </v>
  <v>       4.31054407       1.08323141 </v>
  <v>       4.31054385       1.08323418 </v>
  <v>       5.38480701       1.02549460 </v>
  <v>       7.05881470       1.00469523 </v>
  <v>       7.05881540       1.00469480 </v>
  <v>       5.38480756       1.02549293 </v>
  <v>       4.11404180       1.09707836 </v>
  <v>       4.70457438       1.05477292 </v>
  <v>       6.14459604       1.01120972 </v>
  <v>       6.14459604       1.01120972 </v>
  <v>       4.70457438       1.05477292 </v>
  <v>       4.70457459       1.05477290 </v>
  <v>       5.70511913       1.01801020 </v>
  <v>       7.30610065       1.00377813 </v>
  <v>       7.30609998       1.00377842 </v>
  <v>       5.70511861       1.01801121 </v>
  <v>       4.70457438       1.05477447 </v>
  <v>       6.14459668       1.01120971 </v>
  <v>       7.30610105       1.00377813 </v>
  <v>       7.30609998       1.00377865 </v>
  <v>       6.14459604       1.01121036 </v>
  <v>       5.70511913       1.01801119 </v>
  <v>       7.30610065       1.00377864 </v>
  <v>       7.30610105       1.00377841 </v>
  <v>       7.30610105       1.00377842 </v>
  <v>       7.30610065       1.00377865 </v>
  <v>       6.14459668       1.01120971 </v>
  <v>       5.70511913       1.01801120 </v>
  <v>       6.14459604       1.01121036 </v>
  <v>       7.30609998       1.00377865 </v>
  <v>       7.30610105       1.00377812 </v>
  <v>       4.70457459       1.05477290 </v>
  <v>       4.70457438       1.05477447 </v>
  <v>       5.70511861       1.01801120 </v>
  <v>       7.30609998       1.00377842 </v>
  <v>       7.30610065       1.00377813 </v>
  <v>       5.70511913       1.01801019 </v>
  <v>       4.57115756       1.06053434 </v>
  <v>       5.10912532       1.03516130 </v>
  <v>       6.45958218       1.00806785 </v>
  <v>       6.45958218       1.00806785 </v>
  <v>       5.10912532       1.03516130 </v>
  <v>       5.10912552       1.03516129 </v>
  <v>       6.04305599       1.01264886 </v>
  <v>       7.57292864       1.00300682 </v>
  <v>       7.57292799       1.00300700 </v>
  <v>       6.04305550       1.01264936 </v>
  <v>       5.10912532       1.03516161 </v>
  <v>       6.45958279       1.00806784 </v>
  <v>       7.57292903       1.00300681 </v>
  <v>       7.57292799       1.00300723 </v>
  <v>       6.45958218       1.00806843 </v>
  <v>       6.04305599       1.01264935 </v>
  <v>       7.57292864       1.00300722 </v>
  <v>       7.57292903       1.00300699 </v>
  <v>       7.57292903       1.00300700 </v>
  <v>       7.57292864       1.00300722 </v>
  <v>       6.45958279       1.00806784 </v>
  <v>       6.04305599       1.01264935 </v>
  <v>       6.45958218       1.00806843 </v>
  <v>       7.57292799       1.00300722 </v>
  <v>       7.57292903       1.00300681 </v>
  <v>       5.10912552       1.03516130 </v>
  <v>       5.10912532       1.03516161 </v>
  <v>       6.04305550       1.01264935 </v>
  <v>       7.57292799       1.00300700 </v>
  <v>       7.57292864       1.00300681 </v>
  <v>       6.04305599       1.01264885 </v>
  <v>       5.02827332       1.03680292 </v>
  <v>       5.52188488       1.02221898 </v>
  <v>       6.79074760       1.00586875 </v>
  <v>       6.79074760       1.00586876 </v>
  <v>       5.52188488       1.02221898 </v>
  <v>       5.52188506       1.02221898 </v>
  <v>       6.39582495       1.00884915 </v>
  <v>       6.39582449       1.00884953 </v>
  <v>       5.52188488       1.02221860 </v>
  <v>       6.79074818       1.00586875 </v>
  <v>       6.79074760       1.00586918 </v>
  <v>       6.39582495       1.00884952 </v>
  <v>       6.79074818       1.00586875 </v>
  <v>       6.39582495       1.00884953 </v>
  <v>       6.79074760       1.00586918 </v>
  <v>       5.52188506       1.02221899 </v>
  <v>       5.52188488       1.02221860 </v>
  <v>       6.39582449       1.00884953 </v>
  <v>       6.39582495       1.00884914 </v>
  <v>       5.48538907       1.02215928 </v>
  <v>       5.94114243       1.01401769 </v>
  <v>       7.13584009       1.00433609 </v>
  <v>       7.13584009       1.00433609 </v>
  <v>       5.94114243       1.01401769 </v>
  <v>       5.94114260       1.01401770 </v>
  <v>       6.76110476       1.00620071 </v>
  <v>       6.76110432       1.00620102 </v>
  <v>       5.94114243       1.01401739 </v>
  <v>       7.13584064       1.00433608 </v>
  <v>       7.13584009       1.00433642 </v>
  <v>       6.76110476       1.00620101 </v>
  <v>       7.13584064       1.00433608 </v>
  <v>       6.76110476       1.00620102 </v>
  <v>       7.13584009       1.00433642 </v>
  <v>       5.94114260       1.01401770 </v>
  <v>       5.94114243       1.01401739 </v>
  <v>       6.76110432       1.00620102 </v>
  <v>       6.76110476       1.00620070 </v>
  <v>       5.94250483       1.01351858 </v>
  <v>       6.36561417       1.00895579 </v>
  <v>       7.49293561       1.00321747 </v>
  <v>       7.49293561       1.00321747 </v>
  <v>       6.36561417       1.00895579 </v>
  <v>       6.36561432       1.00895579 </v>
  <v>       7.13697470       1.00439416 </v>
  <v>       7.13697429       1.00439445 </v>
  <v>       6.36561417       1.00895580 </v>
  <v>       7.49293614       1.00321747 </v>
  <v>       7.49293561       1.00321772 </v>
  <v>       7.13697470       1.00439445 </v>
  <v>       7.49293614       1.00321747 </v>
  <v>       7.13697470       1.00439445 </v>
  <v>       7.49293561       1.00321772 </v>
  <v>       6.36561432       1.00895579 </v>
  <v>       6.36561417       1.00895580 </v>
  <v>       7.13697429       1.00439445 </v>
  <v>       7.13697470       1.00439416 </v>
  <v>       6.39962058       1.00843625 </v>
  <v>       6.79432291       1.00586169 </v>
  <v>       6.79432291       1.00586169 </v>
  <v>       6.79432305       1.00586169 </v>
  <v>       7.52184737       1.00314641 </v>
  <v>       7.52184698       1.00314672 </v>
  <v>       6.79432291       1.00586193 </v>
  <v>       7.52184737       1.00314671 </v>
  <v>       7.52184737       1.00314671 </v>
  <v>       6.79432305       1.00586168 </v>
  <v>       6.79432291       1.00586193 </v>
  <v>       7.52184698       1.00314672 </v>
  <v>       7.52184737       1.00314641 </v>
  <v>       6.85673634       1.00538212 </v>
  <v>       7.22651461       1.00393039 </v>
  <v>       7.22651461       1.00393039 </v>
  <v>       7.22651474       1.00393039 </v>
  <v>       7.22651461       1.00393066 </v>
  <v>       7.22651474       1.00393039 </v>
  <v>       7.22651461       1.00393066 </v>
  <v>       7.31385210       1.00350583 </v>
  <v>       7.66159987       1.00267586 </v>
  <v>       7.66159987       1.00267586 </v>
  <v>       7.66160000       1.00267585 </v>
  <v>       7.66159987       1.00267607 </v>
  <v>       7.66160000       1.00267585 </v>
  <v>       7.66159987       1.00267607 </v>
  <v>       7.31385210       1.00350583 </v>
  <v>       7.66159987       1.00267586 </v>
  <v>       7.66159987       1.00267586 </v>
  <v>       7.66160000       1.00267585 </v>
  <v>       7.66159987       1.00267607 </v>
  <v>       7.66160000       1.00267585 </v>
  <v>       7.66159987       1.00267607 </v>
  <v>       6.85673634       1.00538212 </v>
  <v>       7.22651461       1.00393039 </v>
  <v>       7.22651461       1.00393039 </v>
  <v>       7.22651474       1.00393039 </v>
  <v>       7.22651461       1.00393066 </v>
  <v>       7.22651474       1.00393039 </v>
  <v>       7.22651461       1.00393066 </v>
  <v>       6.39962058       1.00843625 </v>
  <v>       6.79432291       1.00586169 </v>
  <v>       6.79432291       1.00586169 </v>
  <v>       6.79432305       1.00586168 </v>
  <v>       7.52184737       1.00314641 </v>
  <v>       7.52184698       1.00314672 </v>
  <v>       6.79432291       1.00586193 </v>
  <v>       7.52184737       1.00314671 </v>
  <v>       7.52184737       1.00314671 </v>
  <v>       6.79432305       1.00586169 </v>
  <v>       6.79432291       1.00586193 </v>
  <v>       7.52184698       1.00314672 </v>
  <v>       7.52184737       1.00314641 </v>
  <v>       5.94250483       1.01351858 </v>
  <v>       6.36561417       1.00895579 </v>
  <v>       7.49293561       1.00321747 </v>
  <v>       7.49293561       1.00321747 </v>
  <v>       6.36561417       1.00895579 </v>
  <v>       6.36561432       1.00895579 </v>
  <v>       7.13697470       1.00439416 </v>
  <v>       7.13697429       1.00439445 </v>
  <v>       6.36561417       1.00895580 </v>
  <v>       7.49293614       1.00321747 </v>
  <v>       7.49293561       1.00321772 </v>
  <v>       7.13697470       1.00439445 </v>
  <v>       7.49293614       1.00321747 </v>
  <v>       7.13697470       1.00439445 </v>
  <v>       7.49293561       1.00321772 </v>
  <v>       6.36561432       1.00895579 </v>
  <v>       6.36561417       1.00895580 </v>
  <v>       7.13697429       1.00439445 </v>
  <v>       7.13697470       1.00439416 </v>
  <v>       5.48538907       1.02215928 </v>
  <v>       5.94114243       1.01401769 </v>
  <v>       7.13584009       1.00433609 </v>
  <v>       7.13584009       1.00433609 </v>
  <v>       5.94114243       1.01401769 </v>
  <v>       5.94114260       1.01401770 </v>
  <v>       6.76110476       1.00620070 </v>
  <v>       6.76110432       1.00620102 </v>
  <v>       5.94114243       1.01401739 </v>
  <v>       7.13584064       1.00433608 </v>
  <v>       7.13584009       1.00433642 </v>
  <v>       6.76110476       1.00620102 </v>
  <v>       7.13584064       1.00433608 </v>
  <v>       6.76110476       1.00620101 </v>
  <v>       7.13584009       1.00433642 </v>
  <v>       5.94114260       1.01401770 </v>
  <v>       5.94114243       1.01401739 </v>
  <v>       6.76110432       1.00620102 </v>
  <v>       6.76110476       1.00620071 </v>
  <v>       5.02827332       1.03680292 </v>
  <v>       5.52188488       1.02221898 </v>
  <v>       6.79074760       1.00586876 </v>
  <v>       6.79074760       1.00586875 </v>
  <v>       5.52188488       1.02221898 </v>
  <v>       5.52188506       1.02221899 </v>
  <v>       6.39582495       1.00884914 </v>
  <v>       6.39582449       1.00884953 </v>
  <v>       5.52188488       1.02221860 </v>
  <v>       6.79074818       1.00586875 </v>
  <v>       6.79074760       1.00586918 </v>
  <v>       6.39582495       1.00884953 </v>
  <v>       6.79074818       1.00586875 </v>
  <v>       6.39582495       1.00884952 </v>
  <v>       6.79074760       1.00586918 </v>
  <v>       5.52188506       1.02221898 </v>
  <v>       5.52188488       1.02221860 </v>
  <v>       6.39582449       1.00884953 </v>
  <v>       6.39582495       1.00884915 </v>
  <v>       4.57115756       1.06053434 </v>
  <v>       5.10912532       1.03516130 </v>
  <v>       6.45958218       1.00806785 </v>
  <v>       6.45958218       1.00806785 </v>
  <v>       5.10912532       1.03516130 </v>
  <v>       5.10912552       1.03516130 </v>
  <v>       6.04305599       1.01264885 </v>
  <v>       7.57292864       1.00300681 </v>
  <v>       7.57292799       1.00300700 </v>
  <v>       6.04305550       1.01264935 </v>
  <v>       5.10912532       1.03516161 </v>
  <v>       6.45958279       1.00806784 </v>
  <v>       7.57292903       1.00300681 </v>
  <v>       7.57292799       1.00300722 </v>
  <v>       6.45958218       1.00806843 </v>
  <v>       6.04305599       1.01264935 </v>
  <v>       7.57292864       1.00300722 </v>
  <v>       7.57292903       1.00300700 </v>
  <v>       7.57292903       1.00300699 </v>
  <v>       7.57292864       1.00300722 </v>
  <v>       6.45958279       1.00806784 </v>
  <v>       6.04305599       1.01264935 </v>
  <v>       6.45958218       1.00806843 </v>
  <v>       7.57292799       1.00300723 </v>
  <v>       7.57292903       1.00300681 </v>
  <v>       5.10912552       1.03516129 </v>
  <v>       5.10912532       1.03516161 </v>
  <v>       6.04305550       1.01264936 </v>
  <v>       7.57292799       1.00300700 </v>
  <v>       7.57292864       1.00300682 </v>
  <v>       6.04305599       1.01264886 </v>
  <v>       4.11404180       1.09707836 </v>
  <v>       4.70457438       1.05477292 </v>
  <v>       6.14459604       1.01120972 </v>
  <v>       6.14459604       1.01120972 </v>
  <v>       4.70457438       1.05477292 </v>
  <v>       4.70457459       1.05477290 </v>
  <v>       5.70511913       1.01801019 </v>
  <v>       7.30610065       1.00377813 </v>
  <v>       7.30609998       1.00377842 </v>
  <v>       5.70511861       1.01801120 </v>
  <v>       4.70457438       1.05477447 </v>
  <v>       6.14459668       1.01120971 </v>
  <v>       7.30610105       1.00377812 </v>
  <v>       7.30609998       1.00377865 </v>
  <v>       6.14459604       1.01121036 </v>
  <v>       5.70511913       1.01801120 </v>
  <v>       7.30610065       1.00377865 </v>
  <v>       7.30610105       1.00377842 </v>
  <v>       7.30610105       1.00377841 </v>
  <v>       7.30610065       1.00377864 </v>
  <v>       6.14459668       1.01120971 </v>
  <v>       5.70511913       1.01801119 </v>
  <v>       6.14459604       1.01121036 </v>
  <v>       7.30609998       1.00377865 </v>
  <v>       7.30610105       1.00377813 </v>
  <v>       4.70457459       1.05477290 </v>
  <v>       4.70457438       1.05477447 </v>
  <v>       5.70511861       1.01801121 </v>
  <v>       7.30609998       1.00377842 </v>
  <v>       7.30610065       1.00377813 </v>
  <v>       5.70511913       1.01801020 </v>
  <v>       3.65692605       1.15356392 </v>
  <v>       4.31054385       1.08323144 </v>
  <v>       5.84840394       1.01542759 </v>
  <v>       7.76158677       1.00253071 </v>
  <v>       7.76158677       1.00253071 </v>
  <v>       5.84840394       1.01542759 </v>
  <v>       4.31054385       1.08323144 </v>
  <v>       4.31054407       1.08323141 </v>
  <v>       5.38480756       1.02549293 </v>
  <v>       7.05881540       1.00469480 </v>
  <v>       7.05881470       1.00469523 </v>
  <v>       5.38480701       1.02549460 </v>
  <v>       4.31054385       1.08323418 </v>
  <v>       5.84840461       1.01542758 </v>
  <v>       7.05881582       1.00469479 </v>
  <v>       7.05881470       1.00469540 </v>
  <v>       5.84840394       1.01542830 </v>
  <v>       5.38480756       1.02549458 </v>
  <v>       7.76158791       1.00253071 </v>
  <v>       7.76158677       1.00253099 </v>
  <v>       7.05881540       1.00469540 </v>
  <v>       7.05881582       1.00469523 </v>
  <v>       7.76158791       1.00253071 </v>
  <v>       7.05881582       1.00469523 </v>
  <v>       7.05881540       1.00469539 </v>
  <v>       7.76158677       1.00253099 </v>
  <v>       5.84840461       1.01542758 </v>
  <v>       5.38480756       1.02549457 </v>
  <v>       5.84840394       1.01542830 </v>
  <v>       7.05881470       1.00469540 </v>
  <v>       7.05881582       1.00469480 </v>
  <v>       4.31054407       1.08323140 </v>
  <v>       4.31054385       1.08323418 </v>
  <v>       5.38480701       1.02549461 </v>
  <v>       7.05881470       1.00469524 </v>
  <v>       7.05881540       1.00469480 </v>
  <v>       5.38480756       1.02549293 </v>
  <v>       3.19981029       1.24589812 </v>
  <v>       3.93019923       1.12249772 </v>
  <v>       5.57400273       1.02062694 </v>
  <v>       7.55697737       1.00302689 </v>
  <v>       7.55697737       1.00302689 </v>
  <v>       5.57400273       1.02062694 </v>
  <v>       3.93019923       1.12249772 </v>
  <v>       3.93019949       1.12249768 </v>
  <v>       5.08545280       1.03568794 </v>
  <v>       6.83319491       1.00576243 </v>
  <v>       6.83319419       1.00576302 </v>
  <v>       5.08545222       1.03569005 </v>
  <v>       3.93019923       1.12250140 </v>
  <v>       5.57400343       1.02062692 </v>
  <v>       6.83319534       1.00576242 </v>
  <v>       6.83319419       1.00576309 </v>
  <v>       5.57400273       1.02062789 </v>
  <v>       5.08545280       1.03569002 </v>
  <v>       7.55697854       1.00302689 </v>
  <v>       7.55697737       1.00302721 </v>
  <v>       6.83319491       1.00576308 </v>
  <v>       6.83319534       1.00576301 </v>
  <v>       7.55697854       1.00302688 </v>
  <v>       6.83319534       1.00576301 </v>
  <v>       6.83319491       1.00576308 </v>
  <v>       7.55697737       1.00302721 </v>
  <v>       5.57400343       1.02062693 </v>
  <v>       5.08545280       1.03569002 </v>
  <v>       5.57400273       1.02062788 </v>
  <v>       6.83319419       1.00576309 </v>
  <v>       6.83319534       1.00576243 </v>
  <v>       3.93019949       1.12249767 </v>
  <v>       3.93019923       1.12250141 </v>
  <v>       5.08545222       1.03569005 </v>
  <v>       6.83319419       1.00576302 </v>
  <v>       6.83319491       1.00576243 </v>
  <v>       5.08545280       1.03568795 </v>
  <v>       2.74269454       1.40616818 </v>
  <v>       3.56792004       1.17352430 </v>
  <v>       5.32476232       1.02675664 </v>
  <v>       7.37505894       1.00356338 </v>
  <v>       7.37505894       1.00356338 </v>
  <v>       5.32476232       1.02675663 </v>
  <v>       3.56792004       1.17352430 </v>
  <v>       3.56792032       1.17352424 </v>
  <v>       4.81096847       1.04881536 </v>
  <v>       6.63145083       1.00696337 </v>
  <v>       6.63145008       1.00696414 </v>
  <v>       4.81096786       1.04881809 </v>
  <v>       3.56792004       1.17352818 </v>
  <v>       5.32476306       1.02675661 </v>
  <v>       6.63145127       1.00696337 </v>
  <v>       6.63145008       1.00696418 </v>
  <v>       5.32476232       1.02675822 </v>
  <v>       4.81096847       1.04881805 </v>
  <v>       7.37506014       1.00356337 </v>
  <v>       7.37505894       1.00356373 </v>
  <v>       6.63145083       1.00696418 </v>
  <v>       6.63145127       1.00696413 </v>
  <v>       7.37506014       1.00356337 </v>
  <v>       6.63145127       1.00696413 </v>
  <v>       6.63145083       1.00696417 </v>
  <v>       7.37505894       1.00356373 </v>
  <v>       5.32476306       1.02675661 </v>
  <v>       4.81096847       1.04881806 </v>
  <v>       5.32476232       1.02675822 </v>
  <v>       6.63145008       1.00696418 </v>
  <v>       6.63145127       1.00696337 </v>
  <v>       3.56792032       1.17352422 </v>
  <v>       3.56792004       1.17352819 </v>
  <v>       4.81096786       1.04881809 </v>
  <v>       6.63145008       1.00696414 </v>
  <v>       6.63145083       1.00696337 </v>
  <v>       4.81096847       1.04881536 </v>
  <v>       2.28557878       1.69471983 </v>
  <v>       3.22979109       1.23719995 </v>
  <v>       5.10436978       1.03404148 </v>
  <v>       7.21754747       1.00411120 </v>
  <v>       7.21754747       1.00411120 </v>
  <v>       5.10436978       1.03404147 </v>
  <v>       3.22979109       1.23719995 </v>
  <v>       3.22979139       1.23719986 </v>
  <v>       4.56584216       1.06421689 </v>
  <v>       6.45582195       1.00825808 </v>
  <v>       6.45582119       1.00825901 </v>
  <v>       4.56584152       1.06422151 </v>
  <v>       3.22979109       1.23720476 </v>
  <v>       5.10437055       1.03404144 </v>
  <v>       6.45582241       1.00825808 </v>
  <v>       6.45582119       1.00825922 </v>
  <v>       5.10436978       1.03404392 </v>
  <v>       4.56584216       1.06422141 </v>
  <v>       7.21754869       1.00411119 </v>
  <v>       7.21754747       1.00411156 </v>
  <v>       6.45582195       1.00825921 </v>
  <v>       6.45582241       1.00825899 </v>
  <v>       7.21754869       1.00411119 </v>
  <v>       6.45582241       1.00825899 </v>
  <v>       6.45582195       1.00825921 </v>
  <v>       7.21754747       1.00411156 </v>
  <v>       5.10437055       1.03404144 </v>
  <v>       4.56584216       1.06422144 </v>
  <v>       5.10436978       1.03404391 </v>
  <v>       6.45582119       1.00825922 </v>
  <v>       6.45582241       1.00825808 </v>
  <v>       3.22979139       1.23719985 </v>
  <v>       3.22979109       1.23720477 </v>
  <v>       4.56584152       1.06422148 </v>
  <v>       6.45582119       1.00825901 </v>
  <v>       6.45582195       1.00825808 </v>
  <v>       4.56584216       1.06421687 </v>
  <v>       1.82846302       2.21062566 </v>
  <v>       2.92420197       1.31641861 </v>
  <v>       4.91670596       1.04245998 </v>
  <v>       7.08607071       1.00463247 </v>
  <v>       7.08607071       1.00463247 </v>
  <v>       4.91670596       1.04245997 </v>
  <v>       2.92420197       1.31641860 </v>
  <v>       2.92420230       1.31641844 </v>
  <v>       4.35503402       1.07999550 </v>
  <v>       6.30848982       1.00958460 </v>
  <v>       6.30848904       1.00958577 </v>
  <v>       4.35503334       1.08000251 </v>
  <v>       2.92420197       1.31642831 </v>
  <v>       4.91670676       1.04245993 </v>
  <v>       6.30849029       1.00958460 </v>
  <v>       6.30848904       1.00958622 </v>
  <v>       4.91670596       1.04246352 </v>
  <v>       4.35503402       1.08000237 </v>
  <v>       7.08607196       1.00463247 </v>
  <v>       7.08607071       1.00463286 </v>
  <v>       6.30848982       1.00958620 </v>
  <v>       6.30849029       1.00958574 </v>
  <v>       7.08607196       1.00463247 </v>
  <v>       6.30849029       1.00958575 </v>
  <v>       6.30848982       1.00958621 </v>
  <v>       7.08607071       1.00463286 </v>
  <v>       4.91670676       1.04245993 </v>
  <v>       4.35503402       1.08000242 </v>
  <v>       4.91670596       1.04246352 </v>
  <v>       6.30848904       1.00958622 </v>
  <v>       6.30849029       1.00958459 </v>
  <v>       2.92420230       1.31641843 </v>
  <v>       2.92420197       1.31642831 </v>
  <v>       4.35503334       1.08000246 </v>
  <v>       6.30848904       1.00958576 </v>
  <v>       6.30848982       1.00958460 </v>
  <v>       4.35503402       1.07999547 </v>
  <v>       1.37134727       3.08958411 </v>
  <v>       2.66238116       1.41533655 </v>
  <v>       4.76563887       1.05091412 </v>
  <v>       6.98209957       1.00510353 </v>
  <v>       6.98209957       1.00510353 </v>
  <v>       4.76563887       1.05091411 </v>
  <v>       2.66238116       1.41533647 </v>
  <v>       2.66238153       1.41533622 </v>
  <v>       4.18373489       1.09408328 </v>
  <v>       6.19147479       1.01084851 </v>
  <v>       6.19147399       1.01084970 </v>
  <v>       4.18373418       1.09409252 </v>
  <v>       2.66238116       1.41535153 </v>
  <v>       4.76563969       1.05091407 </v>
  <v>       6.19147527       1.01084849 </v>
  <v>       6.19147399       1.01085049 </v>
  <v>       4.76563887       1.05091756 </v>
  <v>       4.18373489       1.09409234 </v>
  <v>       6.98210084       1.00510352 </v>
  <v>       6.98209957       1.00510396 </v>
  <v>       6.19147479       1.01085046 </v>
  <v>       6.19147527       1.01084968 </v>
  <v>       6.98210084       1.00510353 </v>
  <v>       6.19147527       1.01084968 </v>
  <v>       6.19147479       1.01085046 </v>
  <v>       6.98209957       1.00510396 </v>
  <v>       4.76563969       1.05091407 </v>
  <v>       4.18373489       1.09409239 </v>
  <v>       4.76563887       1.05091756 </v>
  <v>       6.19147399       1.01085048 </v>
  <v>       6.19147527       1.01084849 </v>
  <v>       2.66238153       1.41533628 </v>
  <v>       2.66238116       1.41535146 </v>
  <v>       4.18373418       1.09409247 </v>
  <v>       6.19147399       1.01084970 </v>
  <v>       6.19147479       1.01084850 </v>
  <v>       4.18373489       1.09408325 </v>
  <v>       0.91423151       4.40906156 </v>
  <v>       2.45835298       1.53054528 </v>
  <v>       4.65473305       1.05759811 </v>
  <v>       6.90687631       1.00549791 </v>
  <v>       6.90687631       1.00549791 </v>
  <v>       4.65473305       1.05759810 </v>
  <v>       2.45835298       1.53054518 </v>
  <v>       2.45835338       1.53054487 </v>
  <v>       4.05695250       1.10557614 </v>
  <v>       6.10651996       1.01192050 </v>
  <v>       6.10651915       1.01192165 </v>
  <v>       4.05695177       1.10558705 </v>
  <v>       2.45835298       1.53056073 </v>
  <v>       4.65473389       1.05759805 </v>
  <v>       6.10652044       1.01192047 </v>
  <v>       6.10651915       1.01192270 </v>
  <v>       4.65473305       1.05760177 </v>
  <v>       4.05695250       1.10558688 </v>
  <v>       6.90687759       1.00549790 </v>
  <v>       6.90687631       1.00549842 </v>
  <v>       6.10651996       1.01192266 </v>
  <v>       6.10652044       1.01192163 </v>
  <v>       6.90687759       1.00549790 </v>
  <v>       6.10652044       1.01192164 </v>
  <v>       6.10651996       1.01192267 </v>
  <v>       6.90687631       1.00549842 </v>
  <v>       4.65473389       1.05759805 </v>
  <v>       4.05695250       1.10558690 </v>
  <v>       4.65473305       1.05760176 </v>
  <v>       6.10651915       1.01192269 </v>
  <v>       6.10652044       1.01192047 </v>
  <v>       2.45835338       1.53054494 </v>
  <v>       2.45835298       1.53056065 </v>
  <v>       4.05695177       1.10558702 </v>
  <v>       6.10651915       1.01192164 </v>
  <v>       6.10651996       1.01192050 </v>
  <v>       4.05695250       1.10557611 </v>
  <v>       0.45711576       5.94639938 </v>
  <v>       2.32736652       1.63137809 </v>
  <v>       4.58690258       1.06141853 </v>
  <v>       6.86134651       1.00577364 </v>
  <v>       6.86134651       1.00577364 </v>
  <v>       4.58690258       1.06141853 </v>
  <v>       2.32736652       1.63137805 </v>
  <v>       2.32736695       1.63137766 </v>
  <v>       3.97894447       1.11381865 </v>
  <v>       6.05497494       1.01264460 </v>
  <v>       6.05497413       1.01264563 </v>
  <v>       3.97894373       1.11383035 </v>
  <v>       2.32736652       1.63139590 </v>
  <v>       4.58690344       1.06141846 </v>
  <v>       6.05497543       1.01264456 </v>
  <v>       6.05497413       1.01264681 </v>
  <v>       4.58690258       1.06142321 </v>
  <v>       3.97894447       1.11383018 </v>
  <v>       6.86134780       1.00577364 </v>
  <v>       6.86134651       1.00577423 </v>
  <v>       6.05497494       1.01264677 </v>
  <v>       6.05497543       1.01264563 </v>
  <v>       6.86134780       1.00577364 </v>
  <v>       6.05497543       1.01264563 </v>
  <v>       6.05497494       1.01264677 </v>
  <v>       6.86134651       1.00577423 </v>
  <v>       4.58690344       1.06141846 </v>
  <v>       3.97894447       1.11383019 </v>
  <v>       4.58690258       1.06142321 </v>
  <v>       6.05497413       1.01264681 </v>
  <v>       6.05497543       1.01264456 </v>
  <v>       2.32736695       1.63137767 </v>
  <v>       2.32736652       1.63139588 </v>
  <v>       3.97894373       1.11383034 </v>
  <v>       6.05497413       1.01264563 </v>
  <v>       6.05497494       1.01264460 </v>
[...]
  <v>       7.17268180       0.99628484 </v>
  <v>       7.17268224       0.99628514 </v>
  <v>       5.98534281       0.98856142 </v>
  <v>       4.99362730       0.96730735 </v>
  <v>       5.94572739       0.98811141 </v>
  <v>       7.49549165       0.99714420 </v>
  <v>       7.49549152       0.99714417 </v>
  <v>       5.94572729       0.98811134 </v>
  <v>       4.99362726       0.96730745 </v>
  <v>       5.85748593       0.98685634 </v>
  <v>       7.06634163       0.99583381 </v>
  <v>       7.06634097       0.99583349 </v>
  <v>       5.85748552       0.98685602 </v>
  <v>       5.39466949       0.97868654 </v>
  <v>       7.35522490       0.99679761 </v>
  <v>       7.35522401       0.99679725 </v>
  <v>       6.60938457       0.99398426 </v>
  <v>       6.60938490       0.99398432 </v>
  <v>       7.70110482       0.99761435 </v>
  <v>       7.35522466       0.99679673 </v>
  <v>       7.70110410       0.99761412 </v>
  <v>       6.11839445       0.99007605 </v>
  <v>       6.11839416       0.99007596 </v>
  <v>       6.91737694       0.99536282 </v>
  <v>       6.91737771       0.99536340 </v>
  <v>       5.09684707       0.97059484 </v>
  <v>       5.58440047       0.98247178 </v>
  <v>       6.84167869       0.99505124 </v>
  <v>       6.84167916       0.99505169 </v>
  <v>       5.58440075       0.98247218 </v>
  <v>       4.55142026       0.94876204 </v>
  <v>       5.57949702       0.98249179 </v>
  <v>       7.20843311       0.99637946 </v>
  <v>       7.20843297       0.99637938 </v>
  <v>       5.57949691       0.98249157 </v>
  <v>       4.55142021       0.94876239 </v>
  <v>       5.48536727       0.98051734 </v>
  <v>       6.76108696       0.99454037 </v>
  <v>       6.76108626       0.99453998 </v>
  <v>       5.48536684       0.98051646 </v>
  <v>       4.98814311       0.96682902 </v>
  <v>       7.06246742       0.99590764 </v>
  <v>       7.06246650       0.99590718 </v>
  <v>       6.28196443       0.99176373 </v>
  <v>       6.28196478       0.99176375 </v>
  <v>       7.69754955       0.99758635 </v>
  <v>       7.42200297       0.99699870 </v>
  <v>       7.06246717       0.99589289 </v>
  <v>       7.42200223       0.99699843 </v>
  <v>       5.76314700       0.98568794 </v>
  <v>       5.76314670       0.98568746 </v>
  <v>       6.60524159       0.99384727 </v>
  <v>       6.60524240       0.99384791 </v>
  <v>       4.66443596       0.95398036 </v>
  <v>       5.19274892       0.97320864 </v>
  <v>       6.52592370       0.99336974 </v>
  <v>       6.52592418       0.99337032 </v>
  <v>       5.19274922       0.97320942 </v>
  <v>       4.11247477       0.92271157 </v>
  <v>       5.22760073       0.97439423 </v>
  <v>       6.93963473       0.99545230 </v>
  <v>       6.93963459       0.99545216 </v>
  <v>       5.22760062       0.97439388 </v>
  <v>       4.11247472       0.92271184 </v>
  <v>       5.12701438       0.97139798 </v>
  <v>       6.47374074       0.99288462 </v>
  <v>       6.47374001       0.99288409 </v>
  <v>       5.12701392       0.97139647 </v>
  <v>       4.59114300       0.94977104 </v>
  <v>       6.78789131       0.99478611 </v>
  <v>       6.78789035       0.99478559 </v>
  <v>       5.97160778       0.98869965 </v>
  <v>       5.97160815       0.98869972 </v>
  <v>       7.44642810       0.99701739 </v>
  <v>       7.16122549       0.99626299 </v>
  <v>       6.78789105       0.99477119 </v>
  <v>       7.16122472       0.99626270 </v>
  <v>       5.42318041       0.97941069 </v>
  <v>       5.42318008       0.97940964 </v>
  <v>       6.31080335       0.99182367 </v>
  <v>       6.31080419       0.99182430 </v>
  <v>       4.23721432       0.93058791 </v>
  <v>       4.81265662       0.95983784 </v>
  <v>       6.22773655       0.99111574 </v>
  <v>       6.22773705       0.99111644 </v>
  <v>       4.81265694       0.95983925 </v>
  <v>       3.67795878       0.88735079 </v>
  <v>       4.89313206       0.96346335 </v>
  <v>       6.69129750       0.99431362 </v>
  <v>       6.69129735       0.99431345 </v>
  <v>       4.89313194       0.96346324 </v>
  <v>       3.67795872       0.88734947 </v>
  <v>       4.78552071       0.95895593 </v>
  <v>       6.20679073       0.99082538 </v>
  <v>       6.20678997       0.99082449 </v>
  <v>       4.78552022       0.95895367 </v>
  <v>       4.20636732       0.92744072 </v>
  <v>       6.53378913       0.99339732 </v>
  <v>       6.53378814       0.99339680 </v>
  <v>       5.68111182       0.98457345 </v>
  <v>       5.68111220       0.98457361 </v>
  <v>       7.56781985       0.99731819 </v>
  <v>       7.21555427       0.99639359 </v>
  <v>       7.56782068       0.99731844 </v>
  <v>       6.92084406       0.99537956 </v>
  <v>       6.53378886       0.99344619 </v>
  <v>       6.92084327       0.99537923 </v>
  <v>       5.10155053       0.97083422 </v>
  <v>       5.10155018       0.97083254 </v>
  <v>       6.03665229       0.98919235 </v>
  <v>       7.56781923       0.99725401 </v>
  <v>       7.56782040       0.99725425 </v>
  <v>       6.03665317       0.98919308 </v>
  <v>       3.81692509       0.89929705 </v>
  <v>       4.44708845       0.94230154 </v>
  <v>       5.94975920       0.98819180 </v>
  <v>       5.94975973       0.98819275 </v>
  <v>       4.44708881       0.94230375 </v>
  <v>       3.24964958       0.84077814 </v>
  <v>       4.57991081       0.94965518 </v>
  <v>       6.46577945       0.99294605 </v>
  <v>       6.46577930       0.99294585 </v>
  <v>       4.57991068       0.94965542 </v>
  <v>       3.24964952       0.84077550 </v>
  <v>       4.46475645       0.94325930 </v>
  <v>       5.96297685       0.98836225 </v>
  <v>       5.96297605       0.98836085 </v>
  <v>       4.46475592       0.94325584 </v>
  <v>       3.83749497       0.90020869 </v>
  <v>       6.30263771       0.99171709 </v>
  <v>       6.30263668       0.99171654 </v>
  <v>       5.41367465       0.97930738 </v>
  <v>       5.41367505       0.97930755 </v>
  <v>       7.36917491       0.99681590 </v>
  <v>       7.00692979       0.99570941 </v>
  <v>       7.36917577       0.99681619 </v>
  <v>       6.70305335       0.99434576 </v>
  <v>       6.30263743       0.99189379 </v>
  <v>       6.70305252       0.99434535 </v>
  <v>       4.80194329       0.95991887 </v>
  <v>       4.80194292       0.95991655 </v>
  <v>       5.78567304       0.98591245 </v>
  <v>       7.36917427       0.99677931 </v>
  <v>       7.36917548       0.99677958 </v>
  <v>       5.78567396       0.98591348 </v>
  <v>       3.40613546       0.85907755 </v>
  <v>       4.09993138       0.92063769 </v>
  <v>       5.69495181       0.98452615 </v>
  <v>       7.64662508       0.99746117 </v>
  <v>       7.64662570       0.99746130 </v>
  <v>       5.69495236       0.98452754 </v>
  <v>       4.09993177       0.92064044 </v>
  <v>       2.83036635       0.78129754 </v>
  <v>       4.29259063       0.93346747 </v>
  <v>       6.26554508       0.99137812 </v>
  <v>       6.26554492       0.99137798 </v>
  <v>       4.29259049       0.93346690 </v>
  <v>       2.83036628       0.78129390 </v>
  <v>       4.16950853       0.92483535 </v>
  <v>       5.74524535       0.98543883 </v>
  <v>       7.68415559       0.99753318 </v>
  <v>       7.68415466       0.99753313 </v>
  <v>       5.74524453       0.98543703 </v>
  <v>       4.16950797       0.92483067 </v>
  <v>       3.48957289       0.86851429 </v>
  <v>       6.09704792       0.98979239 </v>
  <v>       7.61608286       0.99738675 </v>
  <v>       7.61608144       0.99738657 </v>
  <v>       6.09704685       0.98979167 </v>
  <v>       5.17287391       0.97308817 </v>
  <v>       5.17287432       0.97308846 </v>
  <v>       7.19412887       0.99629606 </v>
  <v>       6.82259601       0.99496158 </v>
  <v>       7.19412975       0.99629636 </v>
  <v>       6.51012100       0.99318662 </v>
  <v>       6.09704763       0.99009085 </v>
  <v>       6.51012015       0.99318606 </v>
  <v>       7.61608162       0.99740395 </v>
  <v>       7.61608307       0.99740420 </v>
  <v>       4.52873168       0.94709311 </v>
  <v>       4.52873129       0.94709015 </v>
  <v>       5.56100385       0.98209225 </v>
  <v>       7.19412821       0.99629180 </v>
  <v>       7.19412944       0.99629211 </v>
  <v>       5.56100481       0.98209393 </v>
  <v>       3.00873895       0.80925030 </v>
  <v>       3.77626649       0.89527742 </v>
  <v>       5.46655535       0.98022414 </v>
  <v>       7.47807638       0.99707959 </v>
  <v>       7.47807702       0.99707973 </v>
  <v>       5.46655593       0.98022609 </v>
  <v>       3.77626691       0.89528171 </v>
  <v>       2.42479577       0.70727365 </v>
  <v>       4.03670598       0.91601949 </v>
  <v>       6.09308756       0.98974198 </v>
  <v>       6.09308740       0.98974199 </v>
  <v>       4.03670583       0.91601725 </v>
  <v>       2.42479569       0.70726990 </v>
  <v>       3.90556812       0.90510982 </v>
  <v>       5.55666312       0.98212060 </v>
  <v>       7.54419697       0.99723939 </v>
  <v>       7.54419603       0.99723934 </v>
  <v>       5.55666227       0.98211837 </v>
  <v>       3.90556751       0.90510386 </v>
  <v>       3.16950782       0.83226775 </v>
  <v>       5.91968363       0.98776551 </v>
  <v>       7.47484977       0.99707511 </v>
  <v>       7.47484832       0.99707495 </v>
  <v>       5.91968253       0.98776446 </v>
  <v>       4.96258857       0.96646089 </v>
  <v>       4.96258901       0.96646140 </v>
  <v>       7.04444115       0.99577471 </v>
  <v>       6.66456880       0.99416889 </v>
  <v>       7.04444204       0.99577502 </v>
  <v>       6.34431528       0.99198415 </v>
  <v>       5.91968333       0.98801217 </v>
  <v>       6.34431441       0.99198337 </v>
  <v>       7.47484850       0.99707835 </v>
  <v>       7.47484998       0.99707858 </v>
  <v>       4.28696531       0.93323419 </v>
  <v>       4.28696489       0.93323156 </v>
  <v>       5.36595049       0.97804516 </v>
  <v>       7.04444048       0.99579412 </v>
  <v>       7.04444173       0.99579445 </v>
  <v>       5.36595148       0.97804779 </v>
  <v>       2.63081184       0.74843782 </v>
  <v>       3.48264978       0.86716249 </v>
  <v>       5.26800610       0.97562179 </v>
  <v>       7.33418621       0.99671534 </v>
  <v>       7.33418685       0.99671546 </v>
  <v>       5.26800670       0.97562450 </v>
  <v>       3.48265023       0.86716876 </v>
  <v>       2.04112838       0.62179357 </v>
  <v>       3.81858163       0.89897448 </v>
  <v>       5.95082234       0.98820068 </v>
  <v>       5.95082218       0.98820067 </v>
  <v>       3.81858148       0.89897135 </v>
  <v>       2.04112828       0.62179229 </v>
  <v>       3.67967836       0.88591978 </v>
  <v>       5.40028476       0.97872563 </v>
  <v>       7.42976975       0.99697516 </v>
  <v>       7.42976879       0.99697508 </v>
  <v>       5.40028389       0.97872264 </v>
  <v>       3.67967772       0.88591267 </v>
  <v>       2.88658108       0.79104304 </v>
  <v>       5.77314687       0.98581606 </v>
  <v>       7.35934437       0.99679294 </v>
  <v>       7.35934290       0.99679276 </v>
  <v>       5.77314574       0.98581430 </v>
  <v>       4.78684195       0.95991554 </v>
  <v>       4.78684240       0.95991614 </v>
  <v>       6.92175712       0.99528792 </v>
  <v>       6.53475690       0.99338113 </v>
  <v>       6.92175803       0.99528824 </v>
  <v>       6.20781015       0.99085067 </v>
  <v>       5.77314656       0.98583212 </v>
  <v>       6.20780926       0.99084976 </v>
  <v>       7.35934309       0.99678200 </v>
  <v>       7.35934458       0.99678221 </v>
  <v>       4.08223494       0.91958450 </v>
  <v>       4.08223450       0.91958303 </v>
  <v>       5.20384427       0.97409559 </v>
  <v>       6.92175643       0.99532869 </v>
  <v>       6.92175772       0.99532901 </v>
  <v>       5.20384530       0.97409928 </v>
  <v>       2.28204765       0.67744395 </v>
  <v>       3.22729299       0.83764024 </v>
  <v>       5.10278932       0.97114955 </v>
  <v>       7.21642971       0.99637356 </v>
  <v>       7.21643037       0.99637363 </v>
  <v>       5.10278993       0.97115293 </v>
  <v>       3.22729348       0.83764778 </v>
  <v>       1.69430966       0.53491686 </v>
  <v>       3.64500286       0.88324238 </v>
  <v>       5.84095598       0.98688824 </v>
  <v>       5.84095581       0.98688805 </v>
  <v>       3.64500270       0.88323956 </v>
  <v>       1.69430954       0.53491628 </v>
  <v>       3.49921605       0.86834843 </v>
  <v>       5.27897298       0.97587854 </v>
  <v>       7.34206774       0.99674700 </v>
  <v>       7.34206677       0.99674692 </v>
  <v>       5.27897208       0.97587460 </v>
  <v>       3.49921538       0.86834095 </v>
  <v>       2.65270249       0.74800218 </v>
  <v>       5.65983259       0.98413381 </v>
  <v>       7.27079292       0.99654246 </v>
  <v>       7.27079143       0.99654224 </v>
  <v>       5.65983144       0.98413119 </v>
  <v>       4.64955224       0.95400648 </v>
  <v>       4.64955270       0.95400666 </v>
  <v>       6.82753263       0.99486905 </v>
  <v>       6.43486814       0.99269780 </v>
  <v>       6.82753355       0.99486942 </v>
  <v>       7.68854006       0.99758104 </v>
  <v>       7.68853957       0.99758098 </v>
  <v>       6.10257216       0.98989729 </v>
  <v>       5.65983227       0.98393217 </v>
  <v>       6.10257126       0.98989622 </v>
  <v>       7.27079162       0.99652884 </v>
  <v>       7.27079314       0.99652905 </v>
  <v>       3.92034721       0.90725111 </v>
  <v>       3.92034676       0.90725043 </v>
  <v>       5.07784161       0.97058379 </v>
  <v>       6.82753193       0.99492181 </v>
  <v>       6.82753323       0.99492208 </v>
  <v>       5.07784265       0.97058778 </v>
  <v>       1.97793368       0.60381104 </v>
  <v>       3.01991725       0.80845993 </v>
  <v>       4.97422747       0.96719384 </v>
  <v>       7.12610258       0.99608676 </v>
  <v>       7.12610324       0.99608676 </v>
  <v>       4.97422811       0.96719737 </v>
  <v>       3.01991777       0.80846917 </v>
  <v>       1.41176308       0.45322335 </v>
  <v>       3.52256095       0.87007475 </v>
  <v>       5.76534097       0.98591292 </v>
  <v>       5.76534080       0.98591273 </v>
  <v>       3.52256078       0.87007091 </v>
  <v>       1.41176294       0.45322276 </v>
  <v>       3.37148376       0.85332700 </v>
  <v>       5.19518484       0.97400016 </v>
  <v>       7.28205661       0.99657243 </v>
  <v>       7.28205563       0.99657239 </v>
  <v>       5.19518393       0.97399547 </v>
  <v>       3.37148306       0.85331905 </v>
  <v>       2.48177764       0.71273343 </v>
  <v>       5.58176448       0.98284518 </v>
  <v>       7.21018859       0.99634794 </v>
  <v>       7.21018709       0.99634770 </v>
  <v>       5.58176331       0.98284214 </v>
  <v>       4.55419870       0.94938085 </v>
  <v>       4.55419917       0.94938072 </v>
  <v>       6.76295731       0.99456030 </v>
  <v>       6.36631115       0.99220183 </v>
  <v>       6.76295824       0.99456082 </v>
  <v>       7.63125403       0.99745573 </v>
  <v>       7.63125353       0.99745565 </v>
  <v>       6.03023853       0.98918974 </v>
  <v>       5.58176416       0.98266852 </v>
  <v>       6.03023762       0.98918829 </v>
  <v>       7.21018728       0.99634217 </v>
  <v>       7.21018881       0.99634245 </v>
  <v>       3.80677186       0.89722045 </v>
  <v>       3.80677140       0.89721980 </v>
  <v>       4.99067782       0.96779386 </v>
  <v>       6.76295661       0.99461752 </v>
  <v>       6.76295792       0.99461779 </v>
  <v>       4.99067889       0.96779780 </v>
  <v>       1.74201361       0.53998530 </v>
  <v>       2.87093886       0.78407739 </v>
  <v>       4.88521532       0.96419315 </v>
  <v>       7.06425706       0.99587288 </v>
  <v>       7.06425772       0.99587284 </v>
  <v>       4.88521597       0.96419700 </v>
  <v>       2.87093941       0.78408829 </v>
  <v>       1.23829496       0.39456998 </v>
  <v>       3.45669423       0.86207328 </v>
  <v>       5.72533457       0.98537862 </v>
  <v>       5.72533439       0.98537864 </v>
  <v>       3.45669406       0.86206783 </v>
  <v>       1.23829480       0.39457004 </v>
  <v>       3.30260536       0.84368025 </v>
  <v>       5.15075188       0.97316051 </v>
  <v>       7.25042398       0.99647379 </v>
  <v>       7.25042300       0.99647382 </v>
  <v>       5.15075096       0.97315586 </v>
  <v>       3.30260464       0.84367071 </v>
  <v>       2.38736668       0.69448419 </v>
  <v>       5.54043266       0.98211611 </v>
  <v>       7.17823926       0.99623175 </v>
  <v>       7.17823775       0.99623152 </v>
  <v>       5.54043149       0.98211322 </v>
  <v>       4.50344592       0.94673034 </v>
  <v>       4.50344641       0.94673012 </v>
  <v>       6.72888482       0.99439018 </v>
  <v>       6.33010404       0.99194158 </v>
  <v>       6.72888576       0.99439086 </v>
  <v>       7.60107475       0.99738725 </v>
  <v>       7.60107426       0.99738713 </v>
  <v>       5.99200102       0.98878952 </v>
  <v>       5.54043234       0.98207505 </v>
  <v>       5.99200010       0.98878756 </v>
  <v>       7.17823794       0.99623697 </v>
  <v>       7.17823948       0.99623733 </v>
  <v>       3.74590595       0.89105330 </v>
  <v>       3.74590548       0.89105273 </v>
  <v>       4.94440740       0.96618058 </v>
  <v>       6.72888412       0.99444475 </v>
  <v>       6.72888544       0.99444508 </v>
  <v>       4.94440848       0.96618454 </v>
  <v>       1.60465287       0.50162306 </v>
  <v>       2.78972926       0.77044563 </v>
  <v>       4.83793635       0.96256306 </v>
  <v>       7.03164470       0.99575914 </v>
  <v>       7.03164537       0.99575912 </v>
  <v>       4.83793700       0.96256759 </v>
  <v>       2.78972983       0.77045719 </v>
 </varray>
 <time name="total"> 2029.27 2029.61</time>
 <kpoints>
  <generation param="Gamma">
   <v type="int" name="divisions">       5        5        5 </v>
   <v name="usershift">      0.00000000       0.00000000       0.00000000 </v>
   <v name="genvec1">      0.20000000       0.00000000       0.00000000 </v>
   <v name="genvec2">     -0.00000000       0.20000000       0.00000000 </v>
   <v name="genvec3">      0.00000000       0.00000000       0.20000000 </v>
   <v name="shift">      0.00000000       0.00000000       0.00000000 </v>
  </generation>
  <varray name="kpointlist" >
   <v>       0.00000000       0.00000000       0.00000000 </v>
   <v>       0.20000000       0.00000000       0.00000000 </v>
   <v>       0.40000000       0.00000000       0.00000000 </v>
   <v>       0.20000000       0.20000000       0.00000000 </v>
   <v>       0.40000000       0.20000000       0.00000000 </v>
   <v>       0.00000000       0.00000000       0.20000000 </v>
   <v>       0.20000000       0.00000000       0.20000000 </v>
   <v>       0.40000000       0.00000000       0.20000000 </v>
   <v>       0.20000000       0.20000000       0.20000000 </v>
   <v>       0.40000000       0.20000000       0.20000000 </v>
   <v>       0.00000000       0.00000000       0.40000000 </v>
   <v>       0.20000000       0.00000000       0.40000000 </v>
   <v>       0.40000000       0.00000000       0.40000000 </v>
   <v>       0.20000000       0.20000000       0.40000000 </v>
   <v>       0.40000000       0.20000000       0.40000000 </v>
  </varray>
  <varray name="weights" >
   <v>       0.00800000 </v>
   <v>       0.04800000 </v>
   <v>       0.04800000 </v>
   <v>       0.04800000 </v>
   <v>       0.04800000 </v>
   <v>       0.01600000 </v>
   <v>       0.09600000 </v>
   <v>       0.09600000 </v>
   <v>       0.09600000 </v>
   <v>       0.09600000 </v>
   <v>       0.01600000 </v>
   <v>       0.09600000 </v>
   <v>       0.09600000 </v>
   <v>       0.09600000 </v>
   <v>       0.09600000 </v>
  </varray>
 </kpoints>
 <calculation>
