   6   6   0   0
  0.2176228E+02  0.3185317E-09  0.3185317E-09  0.1486004E-08  0.5000000E-15
  1.000000000000000E-004
  CAR 
 MoS2                                    
     14.62280583    -12.13583472  301      3.56814245      1.00000000
    -12.136  0.0000E+00  0.0000E+00
    -12.047  0.0000E+00  0.0000E+00
    -11.957  0.0000E+00  0.0000E+00
    -11.868  0.0000E+00  0.0000E+00
    -11.779  0.0000E+00  0.0000E+00
    -11.690  0.0000E+00  0.0000E+00
    -11.601  0.0000E+00  0.0000E+00
    -11.511  0.0000E+00  0.0000E+00
    -11.422  0.0000E+00  0.0000E+00
    -11.333  0.0000E+00  0.0000E+00
    -11.244  0.0000E+00  0.0000E+00
    -11.155  0.2983E-10  0.2661E-11
    -11.065  0.4880E-04  0.4353E-05
    -10.976  0.2166E+00  0.1933E-01
    -10.887  0.5182E+01  0.4815E+00
    -10.798  0.3280E+01  0.7740E+00
    -10.709  0.1131E+01  0.8750E+00
    -10.620  0.8372E+00  0.9496E+00
    -10.530  0.8730E+00  0.1027E+01
    -10.441  0.5047E+00  0.1073E+01
    -10.352  0.9100E+00  0.1154E+01
    -10.263  0.2762E+00  0.1178E+01
    -10.174  0.9722E+00  0.1265E+01
    -10.084  0.1919E+00  0.1282E+01
     -9.995  0.8756E+00  0.1360E+01
     -9.906  0.3409E+00  0.1391E+01
     -9.817  0.5772E+00  0.1442E+01
     -9.728  0.1736E+01  0.1597E+01
     -9.638  0.7272E+01  0.2246E+01
     -9.549  0.3390E+01  0.2548E+01
     -9.460  0.2178E+01  0.2742E+01
     -9.371  0.1813E+01  0.2904E+01
     -9.282  0.2087E+01  0.3090E+01
     -9.192  0.1993E+01  0.3268E+01
     -9.103  0.6809E+01  0.3875E+01
     -9.014  0.7327E+01  0.4529E+01
     -8.925  0.4943E+01  0.4970E+01
     -8.836  0.1581E+02  0.6380E+01
     -8.746  0.8694E+01  0.7156E+01
     -8.657  0.8425E+01  0.7907E+01
     -8.568  0.1042E+01  0.8000E+01
     -8.479  0.9586E-03  0.8000E+01
     -8.390  0.2357E-08  0.8000E+01
     -8.300  0.0000E+00  0.8000E+01
     -8.211  0.0000E+00  0.8000E+01
     -8.122  0.0000E+00  0.8000E+01
     -8.033  0.0000E+00  0.8000E+01
     -7.944  0.0000E+00  0.8000E+01
     -7.854  0.0000E+00  0.8000E+01
     -7.765  0.0000E+00  0.8000E+01
     -7.676  0.0000E+00  0.8000E+01
     -7.587  0.0000E+00  0.8000E+01
     -7.498  0.0000E+00  0.8000E+01
     -7.408  0.0000E+00  0.8000E+01
     -7.319  0.0000E+00  0.8000E+01
     -7.230  0.0000E+00  0.8000E+01
     -7.141  0.0000E+00  0.8000E+01
     -7.052  0.0000E+00  0.8000E+01
     -6.962  0.0000E+00  0.8000E+01
     -6.873  0.0000E+00  0.8000E+01
     -6.784  0.0000E+00  0.8000E+01
     -6.695  0.0000E+00  0.8000E+01
     -6.606  0.0000E+00  0.8000E+01
     -6.517  0.0000E+00  0.8000E+01
     -6.427  0.0000E+00  0.8000E+01
     -6.338  0.0000E+00  0.8000E+01
     -6.249  0.0000E+00  0.8000E+01
     -6.160  0.0000E+00  0.8000E+01
     -6.071  0.0000E+00  0.8000E+01
     -5.981  0.0000E+00  0.8000E+01
     -5.892  0.0000E+00  0.8000E+01
     -5.803  0.0000E+00  0.8000E+01
     -5.714  0.0000E+00  0.8000E+01
     -5.625  0.0000E+00  0.8000E+01
     -5.535  0.0000E+00  0.8000E+01
     -5.446  0.0000E+00  0.8000E+01
     -5.357  0.0000E+00  0.8000E+01
     -5.268  0.0000E+00  0.8000E+01
     -5.179  0.0000E+00  0.8000E+01
     -5.089  0.0000E+00  0.8000E+01
     -5.000  0.0000E+00  0.8000E+01
     -4.911  0.0000E+00  0.8000E+01
     -4.822  0.0000E+00  0.8000E+01
     -4.733  0.0000E+00  0.8000E+01
     -4.643  0.0000E+00  0.8000E+01
     -4.554  0.0000E+00  0.8000E+01
     -4.465  0.0000E+00  0.8000E+01
     -4.376  0.0000E+00  0.8000E+01
     -4.287  0.0000E+00  0.8000E+01
     -4.197  0.0000E+00  0.8000E+01
     -4.108  0.0000E+00  0.8000E+01
     -4.019  0.0000E+00  0.8000E+01
     -3.930  0.0000E+00  0.8000E+01
     -3.841  0.0000E+00  0.8000E+01
     -3.751  0.0000E+00  0.8000E+01
     -3.662  0.0000E+00  0.8000E+01
     -3.573  0.0000E+00  0.8000E+01
     -3.484  0.0000E+00  0.8000E+01
     -3.395  0.0000E+00  0.8000E+01
     -3.305  0.0000E+00  0.8000E+01
     -3.216  0.0000E+00  0.8000E+01
     -3.127  0.0000E+00  0.8000E+01
     -3.038  0.0000E+00  0.8000E+01
     -2.949  0.0000E+00  0.8000E+01
     -2.860  0.2717E-12  0.8000E+01
     -2.770  0.2005E-05  0.8000E+01
     -2.681  0.3835E-01  0.8003E+01
     -2.592  0.3378E+01  0.8305E+01
     -2.503  0.6531E+01  0.8887E+01
     -2.414  0.4934E+01  0.9327E+01
     -2.324  0.4664E+01  0.9743E+01
     -2.235  0.4828E+01  0.1017E+02
     -2.146  0.7721E+01  0.1086E+02
     -2.057  0.3446E+01  0.1117E+02
     -1.968  0.3101E+01  0.1145E+02
     -1.878  0.4921E+01  0.1189E+02
     -1.789  0.4125E+01  0.1225E+02
     -1.700  0.3472E+01  0.1256E+02
     -1.611  0.6844E+01  0.1317E+02
     -1.522  0.4240E+01  0.1355E+02
     -1.432  0.2503E+01  0.1378E+02
     -1.343  0.5769E+01  0.1429E+02
     -1.254  0.5748E+00  0.1434E+02
     -1.165  0.4657E+00  0.1438E+02
     -1.076  0.1488E+00  0.1440E+02
     -0.986  0.1367E+01  0.1452E+02
     -0.897  0.9655E+01  0.1538E+02
     -0.808  0.9452E+01  0.1622E+02
     -0.719  0.5775E+01  0.1674E+02
     -0.630  0.3019E+01  0.1701E+02
     -0.540  0.2563E+01  0.1723E+02
     -0.451  0.3300E+01  0.1753E+02
     -0.362  0.7463E+01  0.1819E+02
     -0.273  0.2476E+01  0.1842E+02
     -0.184  0.2040E+01  0.1860E+02
     -0.094  0.2351E+01  0.1881E+02
     -0.005  0.7779E+01  0.1950E+02
      0.084  0.1008E+02  0.2040E+02
      0.173  0.4063E+01  0.2076E+02
      0.262  0.6426E+01  0.2134E+02
      0.352  0.6474E+01  0.2191E+02
      0.441  0.2668E+01  0.2215E+02
      0.530  0.7291E+01  0.2280E+02
      0.619  0.1020E+02  0.2371E+02
      0.708  0.3128E+01  0.2399E+02
      0.798  0.2381E+01  0.2420E+02
      0.887  0.1585E+01  0.2434E+02
      0.976  0.3777E+01  0.2468E+02
      1.065  0.8107E+01  0.2540E+02
      1.154  0.5212E+01  0.2587E+02
      1.243  0.5853E+01  0.2639E+02
      1.333  0.1227E+02  0.2749E+02
      1.422  0.5431E+01  0.2797E+02
      1.511  0.3073E+01  0.2824E+02
      1.600  0.3469E+01  0.2855E+02
      1.689  0.1288E+02  0.2970E+02
      1.779  0.4945E+01  0.3014E+02
      1.868  0.2149E+01  0.3034E+02
      1.957  0.2520E+01  0.3056E+02
      2.046  0.2713E+01  0.3080E+02
      2.135  0.3514E+01  0.3112E+02
      2.225  0.8440E+01  0.3187E+02
      2.314  0.3626E+01  0.3219E+02
      2.403  0.2649E+01  0.3243E+02
      2.492  0.3712E+01  0.3276E+02
      2.581  0.6382E+01  0.3333E+02
      2.671  0.2060E+01  0.3351E+02
      2.760  0.2350E+01  0.3372E+02
      2.849  0.2542E+01  0.3395E+02
      2.938  0.3029E+01  0.3422E+02
      3.027  0.3716E+01  0.3455E+02
      3.117  0.5404E+01  0.3503E+02
      3.206  0.7316E+01  0.3568E+02
      3.295  0.1878E+01  0.3585E+02
      3.384  0.1570E+01  0.3599E+02
      3.473  0.8899E-01  0.3600E+02
      3.563  0.3449E-04  0.3600E+02
      3.652  0.3657E-10  0.3600E+02
      3.741  0.0000E+00  0.3600E+02
      3.830  0.0000E+00  0.3600E+02
      3.919  0.0000E+00  0.3600E+02
      4.009  0.0000E+00  0.3600E+02
      4.098  0.0000E+00  0.3600E+02
      4.187  0.0000E+00  0.3600E+02
      4.276  0.0000E+00  0.3600E+02
      4.365  0.0000E+00  0.3600E+02
      4.455  0.0000E+00  0.3600E+02
      4.544  0.2459E-11  0.3600E+02
      4.633  0.1094E-04  0.3600E+02
      4.722  0.1099E+00  0.3601E+02
      4.811  0.4414E+01  0.3640E+02
      4.900  0.3646E+01  0.3673E+02
      4.990  0.1259E+01  0.3684E+02
      5.079  0.1757E+01  0.3700E+02
      5.168  0.1959E+01  0.3717E+02
      5.257  0.2908E+01  0.3743E+02
      5.346  0.1013E+02  0.3834E+02
      5.436  0.7393E+01  0.3899E+02
      5.525  0.2394E+01  0.3921E+02
      5.614  0.3479E+01  0.3952E+02
      5.703  0.5009E+01  0.3997E+02
      5.792  0.5821E+01  0.4048E+02
      5.882  0.1153E+02  0.4151E+02
      5.971  0.1718E+02  0.4305E+02
      6.060  0.6421E+01  0.4362E+02
      6.149  0.1237E+02  0.4472E+02
      6.238  0.1421E+02  0.4599E+02
      6.328  0.5621E+01  0.4649E+02
      6.417  0.2804E+01  0.4674E+02
      6.506  0.2535E+01  0.4697E+02
      6.595  0.3056E+01  0.4724E+02
      6.684  0.7005E+01  0.4786E+02
      6.774  0.2658E+01  0.4810E+02
      6.863  0.1361E+01  0.4822E+02
      6.952  0.2422E+01  0.4844E+02
      7.041  0.4089E+01  0.4880E+02
      7.130  0.3695E+01  0.4913E+02
      7.220  0.3351E+01  0.4943E+02
      7.309  0.2704E+01  0.4967E+02
      7.398  0.4460E+01  0.5007E+02
      7.487  0.6636E+01  0.5066E+02
      7.576  0.1454E+01  0.5079E+02
      7.666  0.1180E+01  0.5090E+02
      7.755  0.1223E+01  0.5101E+02
      7.844  0.1313E+01  0.5112E+02
      7.933  0.1905E+01  0.5129E+02
      8.022  0.6398E+01  0.5186E+02
      8.112  0.1513E+01  0.5200E+02
      8.201  0.3195E-02  0.5200E+02
      8.290  0.2068E-07  0.5200E+02
      8.379  0.1729E-15  0.5200E+02
      8.468  0.0000E+00  0.5200E+02
      8.558  0.0000E+00  0.5200E+02
      8.647  0.0000E+00  0.5200E+02
      8.736  0.0000E+00  0.5200E+02
      8.825  0.1270E-11  0.5200E+02
      8.914  0.3570E-05  0.5200E+02
      9.003  0.2459E-01  0.5200E+02
      9.093  0.8729E+00  0.5208E+02
      9.182  0.1250E+01  0.5219E+02
      9.271  0.2065E+01  0.5238E+02
      9.360  0.6295E+01  0.5294E+02
      9.449  0.3783E+01  0.5327E+02
      9.539  0.1748E+01  0.5343E+02
      9.628  0.2403E+01  0.5364E+02
      9.717  0.1877E+01  0.5381E+02
      9.806  0.1089E+01  0.5391E+02
      9.895  0.9981E+00  0.5400E+02
      9.985  0.1329E+01  0.5412E+02
     10.074  0.1638E+01  0.5426E+02
     10.163  0.2331E+01  0.5447E+02
     10.252  0.3374E+01  0.5477E+02
     10.341  0.7233E+01  0.5542E+02
     10.431  0.4256E+01  0.5580E+02
     10.520  0.2520E+01  0.5602E+02
     10.609  0.2475E+01  0.5624E+02
     10.698  0.2174E+01  0.5644E+02
     10.787  0.3428E+01  0.5674E+02
     10.877  0.6141E+01  0.5729E+02
     10.966  0.4198E+01  0.5766E+02
     11.055  0.4915E+01  0.5810E+02
     11.144  0.2965E+01  0.5837E+02
     11.233  0.3262E+01  0.5866E+02
     11.323  0.2784E+01  0.5891E+02
     11.412  0.2987E+01  0.5917E+02
     11.501  0.3728E+01  0.5951E+02
     11.590  0.3554E+01  0.5982E+02
     11.679  0.2082E+01  0.6001E+02
     11.769  0.2506E+01  0.6023E+02
     11.858  0.3188E+01  0.6052E+02
     11.947  0.1867E+01  0.6068E+02
     12.036  0.2474E+01  0.6090E+02
     12.125  0.9433E+00  0.6099E+02
     12.215  0.1848E+01  0.6115E+02
     12.304  0.7111E+01  0.6179E+02
     12.393  0.3961E+01  0.6214E+02
     12.482  0.1229E+01  0.6225E+02
     12.571  0.2327E+01  0.6246E+02
     12.661  0.3347E+01  0.6276E+02
     12.750  0.2878E+01  0.6301E+02
     12.839  0.3605E+01  0.6333E+02
     12.928  0.2624E+01  0.6357E+02
     13.017  0.1296E+01  0.6368E+02
     13.106  0.1196E+01  0.6379E+02
     13.196  0.7514E+00  0.6386E+02
     13.285  0.8063E+00  0.6393E+02
     13.374  0.5599E+00  0.6398E+02
     13.463  0.2292E+00  0.6400E+02
     13.552  0.9085E-02  0.6400E+02
     13.642  0.2862E-05  0.6400E+02
     13.731  0.2266E-11  0.6400E+02
     13.820  0.0000E+00  0.6400E+02
     13.909  0.0000E+00  0.6400E+02
     13.998  0.0000E+00  0.6400E+02
     14.088  0.0000E+00  0.6400E+02
     14.177  0.0000E+00  0.6400E+02
     14.266  0.0000E+00  0.6400E+02
     14.355  0.0000E+00  0.6400E+02
     14.444  0.0000E+00  0.6400E+02
     14.534  0.0000E+00  0.6400E+02
     14.623  0.0000E+00  0.6400E+02
