<?xml version="1.0" encoding="ISO-8859-1"?>
<modeling>
 <generator>
  <i name="program" type="string">vasp </i>
  <i name="version" type="string">5.3.5  </i>
  <i name="subversion" type="string">31Mar14 (build Mar 18 2017 11:34:20) complex                          parallel </i>
  <i name="platform" type="string">LinuxIFC </i>
  <i name="date" type="string">2018 05 04 </i>
  <i name="time" type="string">16:18:23 </i>
 </generator>
 <incar>
  <i type="string" name="SYSTEM"> MoS2</i>
  <i type="string" name="PREC">accurate</i>
  <i type="string" name="ALGO"> Fast</i>
  <i type="logical" name="ADDGRID"> T  </i>
  <i type="int" name="ICHARG">    11</i>
  <i type="int" name="IBRION">    -1</i>
  <i name="EDIFF">      0.00000100</i>
  <i type="int" name="ISYM">     0</i>
  <i name="ENCUT">    600.00000000</i>
  <i type="logical" name="LREAL"> F  </i>
  <i type="int" name="ISMEAR">     0</i>
  <i name="SIGMA">      0.05000000</i>
  <i type="int" name="NWRITE">     1</i>
  <i type="logical" name="LWAVE"> F  </i>
  <i type="logical" name="LCHARG"> F  </i>
 </incar>
 <kpoints>
  <generation param="listgenerated">
   <i name="divisions" type="int">      16 </i>
   <v>       0.00000000       0.00000000       0.00000000 </v>
   <v>       0.50000000       0.00000000       0.00000000 </v>
   <v>       0.33330000       0.33330000       0.00000000 </v>
   <v>       0.00000000       0.00000000       0.00000000 </v>
   <v>       0.00000000       0.00000000       0.50000000 </v>
   <v>       0.50000000       0.00000000       0.50000000 </v>
   <v>       0.33330000       0.33330000       0.50000000 </v>
   <v>       0.50000000       0.00000000       0.50000000 </v>
   <v>       0.33330000       0.33330000       0.00000000 </v>
   <v>       0.33330000       0.33330000       0.50000000 </v>
  </generation>
  <varray name="kpointlist" >
   <v>       0.00000000       0.00000000       0.00000000 </v>
   <v>       0.03333333       0.00000000       0.00000000 </v>
   <v>       0.06666667       0.00000000       0.00000000 </v>
   <v>       0.10000000       0.00000000       0.00000000 </v>
   <v>       0.13333333       0.00000000       0.00000000 </v>
   <v>       0.16666667       0.00000000       0.00000000 </v>
   <v>       0.20000000       0.00000000       0.00000000 </v>
   <v>       0.23333333       0.00000000       0.00000000 </v>
   <v>       0.26666667       0.00000000       0.00000000 </v>
   <v>       0.30000000       0.00000000       0.00000000 </v>
   <v>       0.33333333       0.00000000       0.00000000 </v>
   <v>       0.36666667       0.00000000       0.00000000 </v>
   <v>       0.40000000       0.00000000       0.00000000 </v>
   <v>       0.43333333       0.00000000       0.00000000 </v>
   <v>       0.46666667       0.00000000       0.00000000 </v>
   <v>       0.50000000       0.00000000       0.00000000 </v>
   <v>       0.50000000       0.00000000       0.00000000 </v>
   <v>       0.48888667       0.02222000       0.00000000 </v>
   <v>       0.47777333       0.04444000       0.00000000 </v>
   <v>       0.46666000       0.06666000       0.00000000 </v>
   <v>       0.45554667       0.08888000       0.00000000 </v>
   <v>       0.44443333       0.11110000       0.00000000 </v>
   <v>       0.43332000       0.13332000       0.00000000 </v>
   <v>       0.42220667       0.15554000       0.00000000 </v>
   <v>       0.41109333       0.17776000       0.00000000 </v>
   <v>       0.39998000       0.19998000       0.00000000 </v>
   <v>       0.38886667       0.22220000       0.00000000 </v>
   <v>       0.37775333       0.24442000       0.00000000 </v>
   <v>       0.36664000       0.26664000       0.00000000 </v>
   <v>       0.35552667       0.28886000       0.00000000 </v>
   <v>       0.34441333       0.31108000       0.00000000 </v>
   <v>       0.33330000       0.33330000       0.00000000 </v>
   <v>       0.33330000       0.33330000       0.00000000 </v>
   <v>       0.31108000       0.31108000       0.00000000 </v>
   <v>       0.28886000       0.28886000       0.00000000 </v>
   <v>       0.26664000       0.26664000       0.00000000 </v>
   <v>       0.24442000       0.24442000       0.00000000 </v>
   <v>       0.22220000       0.22220000       0.00000000 </v>
   <v>       0.19998000       0.19998000       0.00000000 </v>
   <v>       0.17776000       0.17776000       0.00000000 </v>
   <v>       0.15554000       0.15554000       0.00000000 </v>
   <v>       0.13332000       0.13332000       0.00000000 </v>
   <v>       0.11110000       0.11110000       0.00000000 </v>
   <v>       0.08888000       0.08888000       0.00000000 </v>
   <v>       0.06666000       0.06666000       0.00000000 </v>
   <v>       0.04444000       0.04444000       0.00000000 </v>
   <v>       0.02222000       0.02222000       0.00000000 </v>
   <v>       0.00000000       0.00000000       0.00000000 </v>
   <v>       0.00000000       0.00000000       0.00000000 </v>
   <v>       0.00000000       0.00000000       0.03333333 </v>
   <v>       0.00000000       0.00000000       0.06666667 </v>
   <v>       0.00000000       0.00000000       0.10000000 </v>
   <v>       0.00000000       0.00000000       0.13333333 </v>
   <v>       0.00000000       0.00000000       0.16666667 </v>
   <v>       0.00000000       0.00000000       0.20000000 </v>
   <v>       0.00000000       0.00000000       0.23333333 </v>
   <v>       0.00000000       0.00000000       0.26666667 </v>
   <v>       0.00000000       0.00000000       0.30000000 </v>
   <v>       0.00000000       0.00000000       0.33333333 </v>
   <v>       0.00000000       0.00000000       0.36666667 </v>
   <v>       0.00000000       0.00000000       0.40000000 </v>
   <v>       0.00000000       0.00000000       0.43333333 </v>
   <v>       0.00000000       0.00000000       0.46666667 </v>
   <v>       0.00000000       0.00000000       0.50000000 </v>
   <v>       0.00000000       0.00000000       0.50000000 </v>
   <v>       0.03333333       0.00000000       0.50000000 </v>
   <v>       0.06666667       0.00000000       0.50000000 </v>
   <v>       0.10000000       0.00000000       0.50000000 </v>
   <v>       0.13333333       0.00000000       0.50000000 </v>
   <v>       0.16666667       0.00000000       0.50000000 </v>
   <v>       0.20000000       0.00000000       0.50000000 </v>
   <v>       0.23333333       0.00000000       0.50000000 </v>
   <v>       0.26666667       0.00000000       0.50000000 </v>
   <v>       0.30000000       0.00000000       0.50000000 </v>
   <v>       0.33333333       0.00000000       0.50000000 </v>
   <v>       0.36666667       0.00000000       0.50000000 </v>
   <v>       0.40000000       0.00000000       0.50000000 </v>
   <v>       0.43333333       0.00000000       0.50000000 </v>
   <v>       0.46666667       0.00000000       0.50000000 </v>
   <v>       0.50000000       0.00000000       0.50000000 </v>
   <v>       0.50000000       0.00000000       0.50000000 </v>
   <v>       0.48888667       0.02222000       0.50000000 </v>
   <v>       0.47777333       0.04444000       0.50000000 </v>
   <v>       0.46666000       0.06666000       0.50000000 </v>
   <v>       0.45554667       0.08888000       0.50000000 </v>
   <v>       0.44443333       0.11110000       0.50000000 </v>
   <v>       0.43332000       0.13332000       0.50000000 </v>
   <v>       0.42220667       0.15554000       0.50000000 </v>
   <v>       0.41109333       0.17776000       0.50000000 </v>
   <v>       0.39998000       0.19998000       0.50000000 </v>
   <v>       0.38886667       0.22220000       0.50000000 </v>
   <v>       0.37775333       0.24442000       0.50000000 </v>
   <v>       0.36664000       0.26664000       0.50000000 </v>
   <v>       0.35552667       0.28886000       0.50000000 </v>
   <v>       0.34441333       0.31108000       0.50000000 </v>
   <v>       0.33330000       0.33330000       0.50000000 </v>
   <v>       0.33330000       0.33330000       0.50000000 </v>
   <v>       0.31108000       0.31108000       0.50000000 </v>
   <v>       0.28886000       0.28886000       0.50000000 </v>
   <v>       0.26664000       0.26664000       0.50000000 </v>
   <v>       0.24442000       0.24442000       0.50000000 </v>
   <v>       0.22220000       0.22220000       0.50000000 </v>
   <v>       0.19998000       0.19998000       0.50000000 </v>
   <v>       0.17776000       0.17776000       0.50000000 </v>
   <v>       0.15554000       0.15554000       0.50000000 </v>
   <v>       0.13332000       0.13332000       0.50000000 </v>
   <v>       0.11110000       0.11110000       0.50000000 </v>
   <v>       0.08888000       0.08888000       0.50000000 </v>
   <v>       0.06666000       0.06666000       0.50000000 </v>
   <v>       0.04444000       0.04444000       0.50000000 </v>
   <v>       0.02222000       0.02222000       0.50000000 </v>
   <v>       0.00000000       0.00000000       0.50000000 </v>
   <v>       0.50000000       0.00000000       0.50000000 </v>
   <v>       0.50000000       0.00000000       0.46666667 </v>
   <v>       0.50000000       0.00000000       0.43333333 </v>
   <v>       0.50000000       0.00000000       0.40000000 </v>
   <v>       0.50000000       0.00000000       0.36666667 </v>
   <v>       0.50000000       0.00000000       0.33333333 </v>
   <v>       0.50000000       0.00000000       0.30000000 </v>
   <v>       0.50000000       0.00000000       0.26666667 </v>
   <v>       0.50000000       0.00000000       0.23333333 </v>
   <v>       0.50000000       0.00000000       0.20000000 </v>
   <v>       0.50000000       0.00000000       0.16666667 </v>
   <v>       0.50000000       0.00000000       0.13333333 </v>
   <v>       0.50000000       0.00000000       0.10000000 </v>
   <v>       0.50000000       0.00000000       0.06666667 </v>
   <v>       0.50000000       0.00000000       0.03333333 </v>
   <v>       0.50000000       0.00000000       0.00000000 </v>
   <v>       0.33330000       0.33330000       0.00000000 </v>
   <v>       0.33330000       0.33330000       0.03333333 </v>
   <v>       0.33330000       0.33330000       0.06666667 </v>
   <v>       0.33330000       0.33330000       0.10000000 </v>
   <v>       0.33330000       0.33330000       0.13333333 </v>
   <v>       0.33330000       0.33330000       0.16666667 </v>
   <v>       0.33330000       0.33330000       0.20000000 </v>
   <v>       0.33330000       0.33330000       0.23333333 </v>
   <v>       0.33330000       0.33330000       0.26666667 </v>
   <v>       0.33330000       0.33330000       0.30000000 </v>
   <v>       0.33330000       0.33330000       0.33333333 </v>
   <v>       0.33330000       0.33330000       0.36666667 </v>
   <v>       0.33330000       0.33330000       0.40000000 </v>
   <v>       0.33330000       0.33330000       0.43333333 </v>
   <v>       0.33330000       0.33330000       0.46666667 </v>
   <v>       0.33330000       0.33330000       0.50000000 </v>
  </varray>
  <varray name="weights" >
   <v>       0.00694444 </v>
   <v>       0.00694444 </v>
   <v>       0.00694444 </v>
   <v>       0.00694444 </v>
   <v>       0.00694444 </v>
   <v>       0.00694444 </v>
   <v>       0.00694444 </v>
   <v>       0.00694444 </v>
   <v>       0.00694444 </v>
   <v>       0.00694444 </v>
   <v>       0.00694444 </v>
   <v>       0.00694444 </v>
   <v>       0.00694444 </v>
   <v>       0.00694444 </v>
   <v>       0.00694444 </v>
   <v>       0.00694444 </v>
   <v>       0.00694444 </v>
   <v>       0.00694444 </v>
   <v>       0.00694444 </v>
   <v>       0.00694444 </v>
   <v>       0.00694444 </v>
   <v>       0.00694444 </v>
   <v>       0.00694444 </v>
   <v>       0.00694444 </v>
   <v>       0.00694444 </v>
   <v>       0.00694444 </v>
   <v>       0.00694444 </v>
   <v>       0.00694444 </v>
   <v>       0.00694444 </v>
   <v>       0.00694444 </v>
   <v>       0.00694444 </v>
   <v>       0.00694444 </v>
   <v>       0.00694444 </v>
   <v>       0.00694444 </v>
   <v>       0.00694444 </v>
   <v>       0.00694444 </v>
   <v>       0.00694444 </v>
   <v>       0.00694444 </v>
   <v>       0.00694444 </v>
   <v>       0.00694444 </v>
   <v>       0.00694444 </v>
   <v>       0.00694444 </v>
   <v>       0.00694444 </v>
   <v>       0.00694444 </v>
   <v>       0.00694444 </v>
   <v>       0.00694444 </v>
   <v>       0.00694444 </v>
   <v>       0.00694444 </v>
   <v>       0.00694444 </v>
   <v>       0.00694444 </v>
   <v>       0.00694444 </v>
   <v>       0.00694444 </v>
   <v>       0.00694444 </v>
   <v>       0.00694444 </v>
   <v>       0.00694444 </v>
   <v>       0.00694444 </v>
   <v>       0.00694444 </v>
   <v>       0.00694444 </v>
   <v>       0.00694444 </v>
   <v>       0.00694444 </v>
   <v>       0.00694444 </v>
   <v>       0.00694444 </v>
   <v>       0.00694444 </v>
   <v>       0.00694444 </v>
   <v>       0.00694444 </v>
   <v>       0.00694444 </v>
   <v>       0.00694444 </v>
   <v>       0.00694444 </v>
   <v>       0.00694444 </v>
   <v>       0.00694444 </v>
   <v>       0.00694444 </v>
   <v>       0.00694444 </v>
   <v>       0.00694444 </v>
   <v>       0.00694444 </v>
   <v>       0.00694444 </v>
   <v>       0.00694444 </v>
   <v>       0.00694444 </v>
   <v>       0.00694444 </v>
   <v>       0.00694444 </v>
   <v>       0.00694444 </v>
   <v>       0.00694444 </v>
   <v>       0.00694444 </v>
   <v>       0.00694444 </v>
   <v>       0.00694444 </v>
   <v>       0.00694444 </v>
   <v>       0.00694444 </v>
   <v>       0.00694444 </v>
   <v>       0.00694444 </v>
   <v>       0.00694444 </v>
   <v>       0.00694444 </v>
   <v>       0.00694444 </v>
   <v>       0.00694444 </v>
   <v>       0.00694444 </v>
   <v>       0.00694444 </v>
   <v>       0.00694444 </v>
   <v>       0.00694444 </v>
   <v>       0.00694444 </v>
   <v>       0.00694444 </v>
   <v>       0.00694444 </v>
   <v>       0.00694444 </v>
   <v>       0.00694444 </v>
   <v>       0.00694444 </v>
   <v>       0.00694444 </v>
   <v>       0.00694444 </v>
   <v>       0.00694444 </v>
   <v>       0.00694444 </v>
   <v>       0.00694444 </v>
   <v>       0.00694444 </v>
   <v>       0.00694444 </v>
   <v>       0.00694444 </v>
   <v>       0.00694444 </v>
   <v>       0.00694444 </v>
   <v>       0.00694444 </v>
   <v>       0.00694444 </v>
   <v>       0.00694444 </v>
   <v>       0.00694444 </v>
   <v>       0.00694444 </v>
   <v>       0.00694444 </v>
   <v>       0.00694444 </v>
   <v>       0.00694444 </v>
   <v>       0.00694444 </v>
   <v>       0.00694444 </v>
   <v>       0.00694444 </v>
   <v>       0.00694444 </v>
   <v>       0.00694444 </v>
   <v>       0.00694444 </v>
   <v>       0.00694444 </v>
   <v>       0.00694444 </v>
   <v>       0.00694444 </v>
   <v>       0.00694444 </v>
   <v>       0.00694444 </v>
   <v>       0.00694444 </v>
   <v>       0.00694444 </v>
   <v>       0.00694444 </v>
   <v>       0.00694444 </v>
   <v>       0.00694444 </v>
   <v>       0.00694444 </v>
   <v>       0.00694444 </v>
   <v>       0.00694444 </v>
   <v>       0.00694444 </v>
   <v>       0.00694444 </v>
   <v>       0.00694444 </v>
   <v>       0.00694444 </v>
   <v>       0.00694444 </v>
  </varray>
 </kpoints>
 <parameters>
  <separator name="general" >
   <i type="string" name="SYSTEM">MoS2</i>
   <i type="logical" name="LCOMPAT"> F  </i>
  </separator>
  <separator name="electronic" >
   <i type="string" name="PREC">accura</i>
   <i name="ENMAX">    600.00000000</i>
   <i name="ENAUG">    345.27800000</i>
   <i name="EDIFF">      0.00000100</i>
   <i type="int" name="IALGO">    68</i>
   <i type="int" name="IWAVPR">    10</i>
   <i type="int" name="NBANDS">    32</i>
   <i name="NELECT">     36.00000000</i>
   <i type="int" name="TURBO">     0</i>
   <i type="int" name="IRESTART">     0</i>
   <i type="int" name="NREBOOT">     0</i>
   <i type="int" name="NMIN">     0</i>
   <i name="EREF">      0.00000000</i>
   <separator name="electronic smearing" >
    <i type="int" name="ISMEAR">     0</i>
    <i name="SIGMA">      0.05000000</i>
    <i name="KSPACING">      0.50000000</i>
    <i type="logical" name="KGAMMA"> T  </i>
   </separator>
   <separator name="electronic projectors" >
    <i type="logical" name="LREAL"> F  </i>
    <v name="ROPT">      0.00000000      0.00000000</v>
    <i type="int" name="LMAXPAW">  -100</i>
    <i type="int" name="LMAXMIX">     2</i>
    <i type="logical" name="NLSPLINE"> F  </i>
   </separator>
   <separator name="electronic startup" >
    <i type="int" name="ISTART">     0</i>
    <i type="int" name="ICHARG">    11</i>
    <i type="int" name="INIWAV">     1</i>
   </separator>
   <separator name="electronic spin" >
    <i type="int" name="ISPIN">     1</i>
    <i type="logical" name="LNONCOLLINEAR"> F  </i>
    <v name="MAGMOM">      1.00000000      1.00000000      1.00000000      1.00000000      1.00000000      1.00000000</v>
    <i name="NUPDOWN">     -1.00000000</i>
    <i type="logical" name="LSORBIT"> F  </i>
    <v name="SAXIS">      0.00000000      0.00000000      1.00000000</v>
    <i type="logical" name="LSPIRAL"> F  </i>
    <v name="QSPIRAL">      0.00000000      0.00000000      0.00000000</v>
    <i type="logical" name="LZEROZ"> F  </i>
   </separator>
   <separator name="electronic exchange-correlation" >
    <i type="logical" name="LASPH"> F  </i>
    <i type="logical" name="LMETAGGA"> F  </i>
   </separator>
   <separator name="electronic convergence" >
    <i type="int" name="NELM">    60</i>
    <i type="int" name="NELMDL">    -5</i>
    <i type="int" name="NELMIN">     2</i>
    <i name="ENINI">    600.00000000</i>
    <separator name="electronic convergence detail" >
     <i type="logical" name="LDIAG"> T  </i>
     <i type="logical" name="LSUBROT"> F  </i>
     <i name="WEIMIN">      0.00000000</i>
     <i name="EBREAK">      0.00000001</i>
     <i name="DEPER">      0.30000000</i>
     <i type="int" name="NRMM">     4</i>
     <i name="TIME">      0.40000000</i>
    </separator>
   </separator>
   <separator name="electronic mixer" >
    <i name="AMIX">      0.40000000</i>
    <i name="BMIX">      1.00000000</i>
    <i name="AMIN">      0.10000000</i>
    <i name="AMIX_MAG">      1.60000000</i>
    <i name="BMIX_MAG">      1.00000000</i>
    <separator name="electronic mixer details" >
     <i type="int" name="IMIX">     4</i>
     <i type="int" name="MAXMIX">   -45</i>
     <i name="WC">    100.00000000</i>
     <i type="int" name="INIMIX">     1</i>
     <i type="int" name="MIXPRE">     1</i>
     <i type="int" name="MREMOVE">     5</i>
    </separator>
   </separator>
   <separator name="electronic dipolcorrection" >
    <i type="logical" name="LDIPOL"> F  </i>
    <i type="logical" name="LMONO"> F  </i>
    <i type="int" name="IDIPOL">     0</i>
    <i name="EPSILON">      1.00000000</i>
    <v name="DIPOL">   -100.00000000   -100.00000000   -100.00000000</v>
    <i name="EFIELD">      0.00000000</i>
   </separator>
  </separator>
  <separator name="grids" >
   <i type="int" name="NGX">    28</i>
   <i type="int" name="NGY">    28</i>
   <i type="int" name="NGZ">   120</i>
   <i type="int" name="NGXF">    56</i>
   <i type="int" name="NGYF">    56</i>
   <i type="int" name="NGZF">   240</i>
   <i type="logical" name="ADDGRID"> T  </i>
  </separator>
  <separator name="ionic" >
   <i type="int" name="NSW">     0</i>
   <i type="int" name="IBRION">    -1</i>
   <i type="int" name="ISIF">     2</i>
   <i name="PSTRESS">      0.00000000</i>
   <i name="EDIFFG">      0.00001000</i>
   <i type="int" name="NFREE">     0</i>
   <i name="POTIM">      0.50000000</i>
   <i name="SMASS">     -3.00000000</i>
   <i name="SCALEE">      1.00000000</i>
  </separator>
  <separator name="ionic md" >
   <i name="TEBEG">      0.00010000</i>
   <i name="TEEND">      0.00010000</i>
   <i type="int" name="NBLOCK">     1</i>
   <i type="int" name="KBLOCK">     1</i>
   <i type="int" name="NPACO">   256</i>
   <i name="APACO">     16.00000000</i>
  </separator>
  <separator name="symmetry" >
   <i type="int" name="ISYM">     0</i>
   <i name="SYMPREC">      0.00001000</i>
  </separator>
  <separator name="dos" >
   <i type="logical" name="LORBIT"> F  </i>
   <v name="RWIGS">     -1.00000000     -1.00000000</v>
   <i type="int" name="NEDOS">   301</i>
   <i name="EMIN">     10.00000000</i>
   <i name="EMAX">    -10.00000000</i>
   <i name="EFERMI">      0.00000000</i>
  </separator>
  <separator name="writing" >
   <i type="int" name="NWRITE">     1</i>
   <i type="logical" name="LWAVE"> F  </i>
   <i type="logical" name="LCHARG"> F  </i>
   <i type="logical" name="LPARD"> F  </i>
   <i type="logical" name="LVTOT"> F  </i>
   <i type="logical" name="LVHAR"> F  </i>
   <i type="logical" name="LELF"> F  </i>
   <i type="logical" name="LOPTICS"> F  </i>
   <v name="STM">      0.00000000      0.00000000      0.00000000      0.00000000      0.00000000      0.00000000      0.00000000</v>
  </separator>
  <separator name="performance" >
   <i type="int" name="NPAR">    16</i>
   <i type="int" name="NSIM">     4</i>
   <i type="int" name="NBLK">    -1</i>
   <i type="logical" name="LPLANE"> T  </i>
   <i type="logical" name="LSCALAPACK"> T  </i>
   <i type="logical" name="LSCAAWARE"> F  </i>
   <i type="logical" name="LSCALU"> F  </i>
   <i type="logical" name="LASYNC"> F  </i>
   <i type="logical" name="LORBITALREAL"> F  </i>
  </separator>
  <separator name="miscellaneous" >
   <i type="int" name="IDIOT">     3</i>
   <i type="logical" name="LMUSIC"> F  </i>
   <v name="POMASS">     95.94000000     32.06600000</v>
   <v name="DARWINR">      0.00000000      0.00000000</v>
   <v name="DARWINV">      1.00000000      1.00000000</v>
   <i type="logical" name="LCORR"> T  </i>
  </separator>
  <i type="logical" name="GGA_COMPAT"> T  </i>
  <i type="logical" name="LBERRY"> F  </i>
  <i type="int" name="ICORELEVEL">     0</i>
  <i type="logical" name="LDAU"> F  </i>
  <i type="int" name="I_CONSTRAINED_M">     0</i>
  <separator name="electronic exchange-correlation" >
   <i type="string" name="GGA">--</i>
   <i type="int" name="VOSKOWN">     0</i>
   <i type="logical" name="LHFCALC"> F  </i>
   <i type="string" name="PRECFOCK"></i>
   <i type="logical" name="LSYMGRAD"> F  </i>
   <i type="logical" name="LHFONE"> F  </i>
   <i type="logical" name="LRHFCALC"> F  </i>
   <i type="logical" name="LTHOMAS"> F  </i>
   <i type="logical" name="LMODELHF"> F  </i>
   <i name="ENCUT4O">     -1.00000000</i>
   <i type="int" name="EXXOEP">     0</i>
   <i type="int" name="FOURORBIT">     0</i>
   <i name="AEXX">      0.00000000</i>
   <i name="HFALPHA">      0.00000000</i>
   <i name="MCALPHA">      0.00000000</i>
   <i name="ALDAX">      1.00000000</i>
   <i name="AGGAX">      1.00000000</i>
   <i name="ALDAC">      1.00000000</i>
   <i name="AGGAC">      1.00000000</i>
   <i type="int" name="NKREDX">     1</i>
   <i type="int" name="NKREDY">     1</i>
   <i type="int" name="NKREDZ">     1</i>
   <i type="logical" name="SHIFTRED"> F  </i>
   <i type="logical" name="ODDONLY"> F  </i>
   <i type="logical" name="EVENONLY"> F  </i>
   <i type="int" name="LMAXFOCK">     0</i>
   <i type="int" name="NMAXFOCKAE">     0</i>
   <i type="logical" name="LFOCKAEDFT"> F  </i>
   <i name="HFSCREEN">      0.00000000</i>
   <i name="HFSCREENC">      0.00000000</i>
   <i type="int" name="NBANDSGWLOW">     0</i>
  </separator>
  <separator name="vdW DFT" >
   <i type="logical" name="LUSE_VDW"> F  </i>
   <i name="Zab_VDW">     -0.84910000</i>
   <i name="PARAM1">      0.12340000</i>
   <i name="PARAM2">      1.00000000</i>
   <i name="PARAM3">      0.00000000</i>
  </separator>
  <separator name="model GW" >
   <i type="int" name="MODEL_GW">     0</i>
   <i name="MODEL_EPS0">     13.05737053</i>
   <i name="MODEL_ALPHA">      1.00000000</i>
  </separator>
  <separator name="linear response parameters" >
   <i type="logical" name="LEPSILON"> F  </i>
   <i type="logical" name="LRPA"> F  </i>
   <i type="logical" name="LNABLA"> F  </i>
   <i type="logical" name="LVEL"> F  </i>
   <i type="int" name="KINTER">     0</i>
   <i name="CSHIFT">      0.10000000</i>
   <i name="OMEGAMAX">     -1.00000000</i>
   <i name="DEG_THRESHOLD">      0.00200000</i>
  </separator>
  <separator name="orbital magnetization" >
   <i type="logical" name="NUCIND"> F  </i>
   <v name="MAGPOS">      0.00000000      0.00000000      0.00000000</v>
   <i type="logical" name="LNICSALL"> T  </i>
   <i type="logical" name="ORBITALMAG"> F  </i>
   <i type="logical" name="LMAGBLOCH"> F  </i>
   <i type="logical" name="LCHIMAG"> F  </i>
   <i type="logical" name="LGAUGE"> T  </i>
   <i type="int" name="MAGATOM">     0</i>
   <v name="MAGDIPOL">      0.00000000      0.00000000      0.00000000</v>
   <v name="AVECCONST">      0.00000000      0.00000000      0.00000000</v>
  </separator>
  <separator name="response functions" >
   <i type="logical" name="LADDER"> F  </i>
   <i type="logical" name="LFXC"> F  </i>
   <i type="logical" name="LHARTREE"> T  </i>
   <i type="int" name="IBSE">     0</i>
   <i type="logical" name="LTCTE"> F  </i>
   <i type="logical" name="LTETE"> F  </i>
   <i type="logical" name="LTRIPLET"> F  </i>
   <i type="logical" name="LFXCEPS"> F  </i>
   <i type="logical" name="LFXHEG"> F  </i>
   <i type="logical" name="L2ORDER"> F  </i>
   <i type="logical" name="LUSEW"> F  </i>
   <i name="ENCUTGW">     -2.00000000</i>
   <i name="ENCUTGWSOFT">     -2.00000000</i>
   <i name="ENCUTLF">     -1.00000000</i>
   <i type="int" name="LMAXMP2">    -1</i>
   <i name="SCISSOR">      0.00000000</i>
   <i type="int" name="NOMEGA">     0</i>
   <i type="int" name="NOMEGAR">     0</i>
   <i type="int" name="NBANDSGW">    -1</i>
   <i type="int" name="NBANDSO">    -1</i>
   <i type="int" name="NBANDSV">    -1</i>
   <i type="int" name="NELM">     1</i>
   <i type="int" name="DIM">     3</i>
   <i type="int" name="ANTIRES">     0</i>
   <i name="OMEGAMAX">    -30.00000000</i>
   <i name="OMEGAMIN">    -30.00000000</i>
   <i name="OMEGATL">   -200.00000000</i>
   <i type="int" name="OMEGAGRID">     0</i>
   <i name="CSHIFT">     -0.10000000</i>
   <i type="logical" name="SELFENERGY"> F  </i>
   <i type="logical" name="LSPECTRAL"> F  </i>
   <i type="logical" name="ODDONLYGW"> F  </i>
   <i type="logical" name="EVENONLYGW"> F  </i>
   <i type="int" name="NKREDLFX">     1</i>
   <i type="int" name="NKREDLFY">     1</i>
   <i type="int" name="NKREDLFZ">     1</i>
   <i type="int" name="MAXMEM">  1800</i>
   <i type="int" name="TELESCOPE">     0</i>
   <i type="int" name="TAUPAR">     1</i>
  </separator>
  <separator name="External order field" >
   <i name="OFIELD_KAPPA">      0.00000000</i>
   <v name="OFIELD_K">      0.00000000      0.00000000      0.00000000</v>
   <i name="OFIELD_Q6_NEAR">      0.00000000</i>
   <i name="OFIELD_Q6_FAR">      0.00000000</i>
   <i name="OFIELD_A">      0.00000000</i>
  </separator>
 </parameters>
 <atominfo>
  <atoms>       6 </atoms>
  <types>       2 </types>
  <array name="atoms" >
   <dimension dim="1">ion</dimension>
   <field type="string">element</field>
   <field type="int">atomtype</field>
   <set>
    <rc><c>Mo</c><c>   1</c></rc>
    <rc><c>Mo</c><c>   1</c></rc>
    <rc><c>S </c><c>   2</c></rc>
    <rc><c>S </c><c>   2</c></rc>
    <rc><c>S </c><c>   2</c></rc>
    <rc><c>S </c><c>   2</c></rc>
   </set>
  </array>
  <array name="atomtypes" >
   <dimension dim="1">type</dimension>
   <field type="int">atomspertype</field>
   <field type="string">element</field>
   <field>mass</field>
   <field>valence</field>
   <field type="string">pseudopotential</field>
   <set>
    <rc><c>   2</c><c>Mo</c><c>     95.94000000</c><c>      6.00000000</c><c>  PAW_PBE Mo 08Apr2002                  </c></rc>
    <rc><c>   4</c><c>S </c><c>     32.06600000</c><c>      6.00000000</c><c>  PAW_PBE S 06Sep2000                   </c></rc>
   </set>
  </array>
 </atominfo>
 <structure name="initialpos" >
  <crystal>
   <varray name="basis" >
    <v>       3.18531719       0.00000000       0.00000000 </v>
    <v>      -1.59265860       2.75856491       0.00000000 </v>
    <v>       0.00000000       0.00000000      14.86003508 </v>
   </varray>
   <i name="volume">    130.57370526 </i>
   <varray name="rec_basis" >
    <v>       0.31394048       0.18125366       0.00000000 </v>
    <v>       0.00000000       0.36250733       0.00000000 </v>
    <v>       0.00000000       0.00000000       0.06729459 </v>
   </varray>
  </crystal>
  <varray name="positions" >
   <v>       0.66666700       0.33333300       0.25000000 </v>
   <v>       0.33333300       0.66666700       0.75000000 </v>
   <v>       0.33333300       0.66666700       0.14490265 </v>
   <v>       0.66666700       0.33333300       0.64490265 </v>
   <v>       0.33333300       0.66666700       0.35509735 </v>
   <v>       0.66666700       0.33333300       0.85509735 </v>
  </varray>
 </structure>
 <calculation>
  <scstep>
   <time name="dav">    4.30    4.30</time>
   <time name="total">    4.43    4.45</time>
   <energy>
    <i name="alphaZ">     90.82777989 </i>
    <i name="ewald">  -1147.23270653 </i>
    <i name="hartreedc">   -543.95130464 </i>
    <i name="XCdc">    -70.30880978 </i>
    <i name="pawpsdc">   3200.11280118 </i>
    <i name="pawaedc">  -3048.53125716 </i>
    <i name="eentropy">     -0.00413756 </i>
    <i name="bandstr">    160.24651831 </i>
    <i name="atom">   1542.32269226 </i>
    <i name="e_fr_energy">    183.48157596 </i>
    <i name="e_wo_entrp">    183.48571351 </i>
    <i name="e_0_energy">    183.48364474 </i>
   </energy>
  </scstep>
  <scstep>
   <time name="dav">    5.06    5.06</time>
   <time name="total">    5.06    5.06</time>
   <energy>
    <i name="e_fr_energy">    -30.98269520 </i>
    <i name="e_wo_entrp">    -30.98269520 </i>
    <i name="e_0_energy">    -30.98269520 </i>
   </energy>
  </scstep>
  <scstep>
   <time name="dav">    5.00    5.00</time>
   <time name="total">    5.00    5.01</time>
   <energy>
    <i name="e_fr_energy">    -42.62811097 </i>
    <i name="e_wo_entrp">    -42.62811097 </i>
    <i name="e_0_energy">    -42.62811097 </i>
   </energy>
  </scstep>
  <scstep>
   <time name="dav">    5.01    5.01</time>
   <time name="total">    5.02    5.02</time>
   <energy>
    <i name="e_fr_energy">    -42.78105862 </i>
    <i name="e_wo_entrp">    -42.78105862 </i>
    <i name="e_0_energy">    -42.78105862 </i>
   </energy>
  </scstep>
  <scstep>
   <time name="dav">    5.33    5.42</time>
   <time name="total">    5.33    5.42</time>
   <energy>
    <i name="e_fr_energy">    -42.78469646 </i>
    <i name="e_wo_entrp">    -42.78469646 </i>
    <i name="e_0_energy">    -42.78469646 </i>
   </energy>
  </scstep>
  <scstep>
   <time name="diag">    2.02    2.02</time>
   <time name="diis">    0.57    0.57</time>
   <time name="orth">    0.11    0.11</time>
   <time name="total">    2.70    2.70</time>
   <energy>
    <i name="e_fr_energy">    -42.78481560 </i>
    <i name="e_wo_entrp">    -42.78481560 </i>
    <i name="e_0_energy">    -42.78481560 </i>
   </energy>
  </scstep>
  <scstep>
   <time name="diag">    1.94    1.94</time>
   <time name="diis">    0.89    0.89</time>
   <time name="orth">    0.11    0.11</time>
   <time name="total">    2.94    2.94</time>
   <energy>
    <i name="e_fr_energy">    -42.78482585 </i>
    <i name="e_wo_entrp">    -42.78482585 </i>
    <i name="e_0_energy">    -42.78482585 </i>
   </energy>
  </scstep>
  <scstep>
   <time name="diag">    1.93    1.93</time>
   <time name="diis">    0.63    0.63</time>
   <time name="orth">    0.11    0.11</time>
   <time name="total">    2.68    2.68</time>
   <energy>
    <i name="alphaZ">     90.82777989 </i>
    <i name="ewald">  -1147.23270653 </i>
    <i name="hartreedc">   -543.95130464 </i>
    <i name="XCdc">    -70.30880978 </i>
    <i name="pawpsdc">   3200.11280118 </i>
    <i name="pawaedc">  -3048.53125716 </i>
    <i name="eentropy">     -0.00000000 </i>
    <i name="bandstr">    -66.02402105 </i>
    <i name="atom">   1542.32269226 </i>
    <i name="e_fr_energy">    -42.78482584 </i>
    <i name="e_wo_entrp">    -42.78482584 </i>
    <i name="e_0_energy">    -42.78482584 </i>
   </energy>
  </scstep>
  <structure>
   <crystal>
    <varray name="basis" >
     <v>       3.18531719       0.00000000       0.00000000 </v>
     <v>      -1.59265860       2.75856491       0.00000000 </v>
     <v>       0.00000000       0.00000000      14.86003508 </v>
    </varray>
    <i name="volume">    130.57370526 </i>
    <varray name="rec_basis" >
     <v>       0.31394048       0.18125366       0.00000000 </v>
     <v>       0.00000000       0.36250733       0.00000000 </v>
     <v>       0.00000000       0.00000000       0.06729459 </v>
    </varray>
   </crystal>
   <varray name="positions" >
    <v>       0.66666700       0.33333300       0.25000000 </v>
    <v>       0.33333300       0.66666700       0.75000000 </v>
    <v>       0.33333300       0.66666700       0.14490265 </v>
    <v>       0.66666700       0.33333300       0.64490265 </v>
    <v>       0.33333300       0.66666700       0.35509735 </v>
    <v>       0.66666700       0.33333300       0.85509735 </v>
   </varray>
  </structure>
  <varray name="forces" >
   <v>      -0.29876217      -0.09253290       0.00000231 </v>
   <v>       0.29875909       0.09253231      -0.00000199 </v>
   <v>       0.22643577       0.07340812      -0.23395761 </v>
   <v>      -0.22643705      -0.07340600      -0.23396042 </v>
   <v>       0.22643909       0.07340900       0.23395866 </v>
   <v>      -0.22643473      -0.07341053       0.23395905 </v>
  </varray>
  <varray name="stress" >
   <v>      -8.33457551       0.57683241       0.00002286 </v>
   <v>       0.57683269      -7.57223615      -0.00000334 </v>
   <v>       0.00002299      -0.00000366      41.81487866 </v>
  </varray>
  <energy>
   <i name="e_fr_energy">    -42.78482584 </i>
   <i name="e_wo_entrp">    -42.78482584 </i>
   <i name="e_0_energy">     -0.00000000 </i>
  </energy>
  <time name="totalsc">   35.69   35.82</time>
  <eigenvalues>
   <array>
    <dimension dim="1">band</dimension>
    <dimension dim="2">kpoint</dimension>
    <dimension dim="3">spin</dimension>
    <field>eigene</field>
    <field>occ</field>
    <set>
     <set comment="spin 1">
      <set comment="kpoint 1">
       <r>  -10.9195    1.0000 </r>
       <r>  -10.9005    1.0000 </r>
       <r>   -9.7061    1.0000 </r>
       <r>   -9.6719    1.0000 </r>
       <r>   -2.5129    1.0000 </r>
       <r>   -2.3513    1.0000 </r>
       <r>    0.5390    1.0000 </r>
       <r>    0.5390    1.0000 </r>
       <r>    0.5395    1.0000 </r>
       <r>    0.5395    1.0000 </r>
       <r>    1.1383    1.0000 </r>
       <r>    1.6582    1.0000 </r>
       <r>    1.6582    1.0000 </r>
       <r>    1.6601    1.0000 </r>
       <r>    1.6602    1.0000 </r>
       <r>    1.7101    1.0000 </r>
       <r>    2.9530    1.0000 </r>
       <r>    3.3337    1.0000 </r>
       <r>    5.9297    0.0000 </r>
       <r>    5.9298    0.0000 </r>
       <r>    5.9317    0.0000 </r>
       <r>    5.9317    0.0000 </r>
       <r>    6.1540    0.0000 </r>
       <r>    6.1540    0.0000 </r>
       <r>    6.1638    0.0000 </r>
       <r>    6.1638    0.0000 </r>
       <r>    9.0706    0.0000 </r>
       <r>    9.6159    0.0000 </r>
       <r>   10.2587    0.0000 </r>
       <r>   10.3011    0.0000 </r>
       <r>   12.2440    0.0000 </r>
       <r>   12.2938    0.0000 </r>
      </set>
      <set comment="kpoint 2">
       <r>  -10.9038    1.0000 </r>
       <r>  -10.8848    1.0000 </r>
       <r>   -9.6985    1.0000 </r>
       <r>   -9.6645    1.0000 </r>
       <r>   -2.4941    1.0000 </r>
       <r>   -2.3325    1.0000 </r>
       <r>    0.5012    1.0000 </r>
       <r>    0.5017    1.0000 </r>
       <r>    0.5564    1.0000 </r>
       <r>    0.5569    1.0000 </r>
       <r>    1.0559    1.0000 </r>
       <r>    1.4365    1.0000 </r>
       <r>    1.6307    1.0000 </r>
       <r>    1.6327    1.0000 </r>
       <r>    1.7209    1.0000 </r>
       <r>    1.9062    1.0000 </r>
       <r>    2.9500    1.0000 </r>
       <r>    3.3206    1.0000 </r>
       <r>    5.9015    0.0000 </r>
       <r>    5.9046    0.0000 </r>
       <r>    5.9590    0.0000 </r>
       <r>    5.9616    0.0000 </r>
       <r>    6.1045    0.0000 </r>
       <r>    6.1145    0.0000 </r>
       <r>    6.1344    0.0000 </r>
       <r>    6.1447    0.0000 </r>
       <r>    9.1382    0.0000 </r>
       <r>    9.6973    0.0000 </r>
       <r>   10.2765    0.0000 </r>
       <r>   10.3451    0.0000 </r>
       <r>   12.3253    0.0000 </r>
       <r>   12.3765    0.0000 </r>
      </set>
      <set comment="kpoint 3">
       <r>  -10.8569    1.0000 </r>
       <r>  -10.8380    1.0000 </r>
       <r>   -9.6760    1.0000 </r>
       <r>   -9.6425    1.0000 </r>
       <r>   -2.4387    1.0000 </r>
       <r>   -2.2775    1.0000 </r>
       <r>    0.3925    1.0000 </r>
       <r>    0.3933    1.0000 </r>
       <r>    0.6081    1.0000 </r>
       <r>    0.6088    1.0000 </r>
       <r>    0.8746    1.0000 </r>
       <r>    1.1757    1.0000 </r>
       <r>    1.5517    1.0000 </r>
       <r>    1.5538    1.0000 </r>
       <r>    1.8338    1.0000 </r>
       <r>    2.0861    1.0000 </r>
       <r>    2.9387    1.0000 </r>
       <r>    3.2792    1.0000 </r>
       <r>    5.8250    0.0000 </r>
       <r>    5.8433    0.0000 </r>
       <r>    5.9468    0.0000 </r>
       <r>    6.0081    0.0000 </r>
       <r>    6.0428    0.0000 </r>
       <r>    6.0470    0.0000 </r>
       <r>    6.0780    0.0000 </r>
       <r>    6.0895    0.0000 </r>
       <r>    9.3158    0.0000 </r>
       <r>    9.9286    0.0000 </r>
       <r>   10.3281    0.0000 </r>
       <r>   10.4811    0.0000 </r>
       <r>   12.5540    0.0000 </r>
       <r>   12.6101    0.0000 </r>
      </set>
      <set comment="kpoint 4">
       <r>  -10.7800    1.0000 </r>
       <r>  -10.7612    1.0000 </r>
       <r>   -9.6390    1.0000 </r>
       <r>   -9.6064    1.0000 </r>
       <r>   -2.3503    1.0000 </r>
       <r>   -2.1900    1.0000 </r>
       <r>    0.2261    1.0000 </r>
       <r>    0.2276    1.0000 </r>
       <r>    0.6571    1.0000 </r>
       <r>    0.6923    1.0000 </r>
       <r>    0.6933    1.0000 </r>
       <r>    0.9059    1.0000 </r>
       <r>    1.4307    1.0000 </r>
       <r>    1.4331    1.0000 </r>
       <r>    1.9280    1.0000 </r>
       <r>    2.2089    1.0000 </r>
       <r>    2.9117    1.0000 </r>
       <r>    3.2037    1.0000 </r>
       <r>    5.7351    0.0000 </r>
       <r>    5.7368    0.0000 </r>
       <r>    5.7816    0.0000 </r>
       <r>    5.8652    0.0000 </r>
       <r>    5.9917    0.0000 </r>
       <r>    6.0045    0.0000 </r>
       <r>    6.1701    0.0000 </r>
       <r>    6.1763    0.0000 </r>
       <r>    9.5440    0.0000 </r>
       <r>   10.2774    0.0000 </r>
       <r>   10.4086    0.0000 </r>
       <r>   10.7199    0.0000 </r>
       <r>   12.8840    0.0000 </r>
       <r>   12.9496    0.0000 </r>
      </set>
      <set comment="kpoint 5">
       <r>  -10.6748    1.0000 </r>
       <r>  -10.6562    1.0000 </r>
       <r>   -9.5884    1.0000 </r>
       <r>   -9.5571    1.0000 </r>
       <r>   -2.2359    1.0000 </r>
       <r>   -2.0776    1.0000 </r>
       <r>    0.0202    1.0000 </r>
       <r>    0.0236    1.0000 </r>
       <r>    0.4240    1.0000 </r>
       <r>    0.6311    1.0000 </r>
       <r>    0.8063    1.0000 </r>
       <r>    0.8076    1.0000 </r>
       <r>    1.2800    1.0000 </r>
       <r>    1.2826    1.0000 </r>
       <r>    1.9741    1.0000 </r>
       <r>    2.2600    1.0000 </r>
       <r>    2.8581    1.0000 </r>
       <r>    3.0877    1.0000 </r>
       <r>    5.5172    0.0000 </r>
       <r>    5.6763    0.0000 </r>
       <r>    5.7198    0.0000 </r>
       <r>    5.7594    0.0000 </r>
       <r>    5.8846    0.0000 </r>
       <r>    5.8987    0.0000 </r>
       <r>    6.3263    0.0000 </r>
       <r>    6.3349    0.0000 </r>
       <r>    9.7647    0.0000 </r>
       <r>   10.5115    0.0000 </r>
       <r>   10.6985    0.0000 </r>
       <r>   11.0650    0.0000 </r>
       <r>   13.2488    0.0000 </r>
       <r>   13.4065    0.0000 </r>
      </set>
      <set comment="kpoint 6">
       <r>  -10.5439    1.0000 </r>
       <r>  -10.5256    1.0000 </r>
       <r>   -9.5258    1.0000 </r>
       <r>   -9.4961    1.0000 </r>
       <r>   -2.1072    1.0000 </r>
       <r>   -1.9536    1.0000 </r>
       <r>   -0.2034    1.0000 </r>
       <r>   -0.1960    1.0000 </r>
       <r>    0.1822    1.0000 </r>
       <r>    0.3537    1.0000 </r>
       <r>    0.9458    1.0000 </r>
       <r>    0.9475    1.0000 </r>
       <r>    1.1118    1.0000 </r>
       <r>    1.1147    1.0000 </r>
       <r>    1.9621    1.0000 </r>
       <r>    2.2358    1.0000 </r>
       <r>    2.7673    1.0000 </r>
       <r>    2.9301    1.0000 </r>
       <r>    5.3339    0.0000 </r>
       <r>    5.6002    0.0000 </r>
       <r>    5.6727    0.0000 </r>
       <r>    5.7672    0.0000 </r>
       <r>    5.7822    0.0000 </r>
       <r>    5.8029    0.0000 </r>
       <r>    6.4964    0.0000 </r>
       <r>    6.5079    0.0000 </r>
       <r>    9.9492    0.0000 </r>
       <r>   10.6278    0.0000 </r>
       <r>   11.1291    0.0000 </r>
       <r>   11.4881    0.0000 </r>
       <r>   13.0551    0.0000 </r>
       <r>   13.2201    0.0000 </r>
      </set>
      <set comment="kpoint 7">
       <r>  -10.3909    1.0000 </r>
       <r>  -10.3731    1.0000 </r>
       <r>   -9.4528    1.0000 </r>
       <r>   -9.4250    1.0000 </r>
       <r>   -1.9840    1.0000 </r>
       <r>   -1.8403    1.0000 </r>
       <r>   -0.4200    1.0000 </r>
       <r>   -0.4041    1.0000 </r>
       <r>   -0.0650    1.0000 </r>
       <r>    0.0755    1.0000 </r>
       <r>    0.9369    1.0000 </r>
       <r>    0.9400    1.0000 </r>
       <r>    1.1054    1.0000 </r>
       <r>    1.1077    1.0000 </r>
       <r>    1.8979    1.0000 </r>
       <r>    2.1492    1.0000 </r>
       <r>    2.6368    1.0000 </r>
       <r>    2.7406    1.0000 </r>
       <r>    5.2131    0.0000 </r>
       <r>    5.5224    0.0000 </r>
       <r>    5.6496    0.0000 </r>
       <r>    5.6652    0.0000 </r>
       <r>    5.7369    0.0000 </r>
       <r>    5.9158    0.0000 </r>
       <r>    6.6671    0.0000 </r>
       <r>    6.6818    0.0000 </r>
       <r>   10.0957    0.0000 </r>
       <r>   10.7454    0.0000 </r>
       <r>   11.4738    0.0000 </r>
       <r>   11.9115    0.0000 </r>
       <r>   12.8853    0.0000 </r>
       <r>   12.9752    0.0000 </r>
      </set>
      <set comment="kpoint 8">
       <r>  -10.2200    1.0000 </r>
       <r>  -10.2028    1.0000 </r>
       <r>   -9.3719    1.0000 </r>
       <r>   -9.3462    1.0000 </r>
       <r>   -1.8968    1.0000 </r>
       <r>   -1.7725    1.0000 </r>
       <r>   -0.6004    1.0000 </r>
       <r>   -0.5679    1.0000 </r>
       <r>   -0.3150    1.0000 </r>
       <r>   -0.2012    1.0000 </r>
       <r>    0.7639    1.0000 </r>
       <r>    0.7672    1.0000 </r>
       <r>    1.2781    1.0000 </r>
       <r>    1.2812    1.0000 </r>
       <r>    1.7986    1.0000 </r>
       <r>    2.0231    1.0000 </r>
       <r>    2.4798    1.0000 </r>
       <r>    2.5421    1.0000 </r>
       <r>    5.1644    0.0000 </r>
       <r>    5.4896    0.0000 </r>
       <r>    5.5412    0.0000 </r>
       <r>    5.5566    0.0000 </r>
       <r>    5.8619    0.0000 </r>
       <r>    6.0840    0.0000 </r>
       <r>    6.8282    0.0000 </r>
       <r>    6.8465    0.0000 </r>
       <r>   10.2117    0.0000 </r>
       <r>   10.8482    0.0000 </r>
       <r>   11.6184    0.0000 </r>
       <r>   12.1449    0.0000 </r>
       <r>   12.6750    0.0000 </r>
       <r>   12.7621    0.0000 </r>
      </set>
      <set comment="kpoint 9">
       <r>  -10.0368    1.0000 </r>
       <r>  -10.0205    1.0000 </r>
       <r>   -9.2858    1.0000 </r>
       <r>   -9.2626    1.0000 </r>
       <r>   -1.8820    1.0000 </r>
       <r>   -1.7869    1.0000 </r>
       <r>   -0.7164    1.0000 </r>
       <r>   -0.6599    1.0000 </r>
       <r>   -0.5636    1.0000 </r>
       <r>   -0.4725    1.0000 </r>
       <r>    0.5995    1.0000 </r>
       <r>    0.6031    1.0000 </r>
       <r>    1.4560    1.0000 </r>
       <r>    1.4601    1.0000 </r>
       <r>    1.6845    1.0000 </r>
       <r>    1.8814    1.0000 </r>
       <r>    2.3246    1.0000 </r>
       <r>    2.3670    1.0000 </r>
       <r>    5.1811    0.0000 </r>
       <r>    5.4493    0.0000 </r>
       <r>    5.4641    0.0000 </r>
       <r>    5.4964    0.0000 </r>
       <r>    6.0306    0.0000 </r>
       <r>    6.2856    0.0000 </r>
       <r>    6.9724    0.0000 </r>
       <r>    6.9946    0.0000 </r>
       <r>   10.3036    0.0000 </r>
       <r>   10.9181    0.0000 </r>
       <r>   11.5331    0.0000 </r>
       <r>   11.9809    0.0000 </r>
       <r>   12.2349    0.0000 </r>
       <r>   12.5960    0.0000 </r>
      </set>
      <set comment="kpoint 10">
       <r>   -9.8481    1.0000 </r>
       <r>   -9.8328    1.0000 </r>
       <r>   -9.1980    1.0000 </r>
       <r>   -9.1774    1.0000 </r>
       <r>   -1.9534    1.0000 </r>
       <r>   -1.8870    1.0000 </r>
       <r>   -0.8049    1.0000 </r>
       <r>   -0.7668    1.0000 </r>
       <r>   -0.7324    1.0000 </r>
       <r>   -0.6898    1.0000 </r>
       <r>    0.4490    1.0000 </r>
       <r>    0.4527    1.0000 </r>
       <r>    1.5727    1.0000 </r>
       <r>    1.6300    1.0000 </r>
       <r>    1.6353    1.0000 </r>
       <r>    1.7423    1.0000 </r>
       <r>    2.2072    1.0000 </r>
       <r>    2.2477    1.0000 </r>
       <r>    5.2484    0.0000 </r>
       <r>    5.3796    0.0000 </r>
       <r>    5.3931    0.0000 </r>
       <r>    5.5337    0.0000 </r>
       <r>    6.2222    0.0000 </r>
       <r>    6.4979    0.0000 </r>
       <r>    7.0958    0.0000 </r>
       <r>    7.1220    0.0000 </r>
       <r>   10.3703    0.0000 </r>
       <r>   10.9434    0.0000 </r>
       <r>   11.2857    0.0000 </r>
       <r>   11.5952    0.0000 </r>
       <r>   11.8811    0.0000 </r>
       <r>   12.3662    0.0000 </r>
      </set>
      <set comment="kpoint 11">
       <r>   -9.6617    1.0000 </r>
       <r>   -9.6478    1.0000 </r>
       <r>   -9.1124    1.0000 </r>
       <r>   -9.0945    1.0000 </r>
       <r>   -2.0849    1.0000 </r>
       <r>   -2.0377    1.0000 </r>
       <r>   -1.0311    1.0000 </r>
       <r>   -0.9736    1.0000 </r>
       <r>   -0.7876    1.0000 </r>
       <r>   -0.7018    1.0000 </r>
       <r>    0.3163    1.0000 </r>
       <r>    0.3201    1.0000 </r>
       <r>    1.4744    1.0000 </r>
       <r>    1.6169    1.0000 </r>
       <r>    1.7911    1.0000 </r>
       <r>    1.7977    1.0000 </r>
       <r>    2.1581    1.0000 </r>
       <r>    2.2041    1.0000 </r>
       <r>    5.3347    0.0000 </r>
       <r>    5.3465    0.0000 </r>
       <r>    5.3498    0.0000 </r>
       <r>    5.5923    0.0000 </r>
       <r>    6.4163    0.0000 </r>
       <r>    6.7012    0.0000 </r>
       <r>    7.1969    0.0000 </r>
       <r>    7.2268    0.0000 </r>
       <r>   10.3769    0.0000 </r>
       <r>   10.9331    0.0000 </r>
       <r>   10.9454    0.0000 </r>
       <r>   11.1733    0.0000 </r>
       <r>   11.5912    0.0000 </r>
       <r>   12.2231    0.0000 </r>
      </set>
      <set comment="kpoint 12">
       <r>   -9.4872    1.0000 </r>
       <r>   -9.4749    1.0000 </r>
       <r>   -9.0333    1.0000 </r>
       <r>   -9.0182    1.0000 </r>
       <r>   -2.2376    1.0000 </r>
       <r>   -2.2010    1.0000 </r>
       <r>   -1.2332    1.0000 </r>
       <r>   -1.1874    1.0000 </r>
       <r>   -0.8146    1.0000 </r>
       <r>   -0.7290    1.0000 </r>
       <r>    0.2043    1.0000 </r>
       <r>    0.2082    1.0000 </r>
       <r>    1.3956    1.0000 </r>
       <r>    1.5109    1.0000 </r>
       <r>    1.9309    1.0000 </r>
       <r>    1.9391    1.0000 </r>
       <r>    2.1857    1.0000 </r>
       <r>    2.2364    1.0000 </r>
       <r>    5.3139    0.0000 </r>
       <r>    5.3236    0.0000 </r>
       <r>    5.4705    0.0000 </r>
       <r>    5.6638    0.0000 </r>
       <r>    6.5949    0.0000 </r>
       <r>    6.8795    0.0000 </r>
       <r>    7.2761    0.0000 </r>
       <r>    7.3094    0.0000 </r>
       <r>   10.2089    0.0000 </r>
       <r>   10.5171    0.0000 </r>
       <r>   10.9169    0.0000 </r>
       <r>   10.9651    0.0000 </r>
       <r>   11.3746    0.0000 </r>
       <r>   12.1504    0.0000 </r>
      </set>
      <set comment="kpoint 13">
       <r>   -9.3349    1.0000 </r>
       <r>   -9.3243    1.0000 </r>
       <r>   -8.9652    1.0000 </r>
       <r>   -8.9530    1.0000 </r>
       <r>   -2.3824    1.0000 </r>
       <r>   -2.3512    1.0000 </r>
       <r>   -1.4019    1.0000 </r>
       <r>   -1.3652    1.0000 </r>
       <r>   -0.8567    1.0000 </r>
       <r>   -0.7745    1.0000 </r>
       <r>    0.1152    1.0000 </r>
       <r>    0.1192    1.0000 </r>
       <r>    1.3382    1.0000 </r>
       <r>    1.4262    1.0000 </r>
       <r>    2.0434    1.0000 </r>
       <r>    2.0531    1.0000 </r>
       <r>    2.2714    1.0000 </r>
       <r>    2.3212    1.0000 </r>
       <r>    5.3123    0.0000 </r>
       <r>    5.3198    0.0000 </r>
       <r>    5.5960    0.0000 </r>
       <r>    5.7396    0.0000 </r>
       <r>    6.7435    0.0000 </r>
       <r>    7.0217    0.0000 </r>
       <r>    7.3348    0.0000 </r>
       <r>    7.3710    0.0000 </r>
       <r>    9.8833    0.0000 </r>
       <r>   10.0674    0.0000 </r>
       <r>   10.9248    0.0000 </r>
       <r>   11.0010    0.0000 </r>
       <r>   11.2320    0.0000 </r>
       <r>   12.0890    0.0000 </r>
      </set>
      <set comment="kpoint 14">
       <r>   -9.2156    1.0000 </r>
       <r>   -9.2069    1.0000 </r>
       <r>   -8.9125    1.0000 </r>
       <r>   -8.9030    1.0000 </r>
       <r>   -2.4996    1.0000 </r>
       <r>   -2.4711    1.0000 </r>
       <r>   -1.5291    1.0000 </r>
       <r>   -1.4990    1.0000 </r>
       <r>   -0.9031    1.0000 </r>
       <r>   -0.8242    1.0000 </r>
       <r>    0.0505    1.0000 </r>
       <r>    0.0546    1.0000 </r>
       <r>    1.3020    1.0000 </r>
       <r>    1.3627    1.0000 </r>
       <r>    2.1248    1.0000 </r>
       <r>    2.1358    1.0000 </r>
       <r>    2.3794    1.0000 </r>
       <r>    2.4198    1.0000 </r>
       <r>    5.3216    0.0000 </r>
       <r>    5.3272    0.0000 </r>
       <r>    5.7106    0.0000 </r>
       <r>    5.8098    0.0000 </r>
       <r>    6.8528    0.0000 </r>
       <r>    7.1224    0.0000 </r>
       <r>    7.3749    0.0000 </r>
       <r>    7.4133    0.0000 </r>
       <r>    9.5622    0.0000 </r>
       <r>    9.6859    0.0000 </r>
       <r>   10.9597    0.0000 </r>
       <r>   11.1234    0.0000 </r>
       <r>   11.1672    0.0000 </r>
       <r>   11.9798    0.0000 </r>
      </set>
      <set comment="kpoint 15">
       <r>   -9.1392    1.0000 </r>
       <r>   -9.1320    1.0000 </r>
       <r>   -8.8790    1.0000 </r>
       <r>   -8.8716    1.0000 </r>
       <r>   -2.5757    1.0000 </r>
       <r>   -2.5484    1.0000 </r>
       <r>   -1.6081    1.0000 </r>
       <r>   -1.5821    1.0000 </r>
       <r>   -0.9384    1.0000 </r>
       <r>   -0.8617    1.0000 </r>
       <r>    0.0113    1.0000 </r>
       <r>    0.0154    1.0000 </r>
       <r>    1.2857    1.0000 </r>
       <r>    1.3204    1.0000 </r>
       <r>    2.1738    1.0000 </r>
       <r>    2.1856    1.0000 </r>
       <r>    2.4700    1.0000 </r>
       <r>    2.4929    1.0000 </r>
       <r>    5.3324    0.0000 </r>
       <r>    5.3367    0.0000 </r>
       <r>    5.7939    0.0000 </r>
       <r>    5.8614    0.0000 </r>
       <r>    6.9186    0.0000 </r>
       <r>    7.1813    0.0000 </r>
       <r>    7.3981    0.0000 </r>
       <r>    7.4379    0.0000 </r>
       <r>    9.3369    0.0000 </r>
       <r>    9.4275    0.0000 </r>
       <r>   10.9839    0.0000 </r>
       <r>   11.1880    0.0000 </r>
       <r>   11.2541    0.0000 </r>
       <r>   11.8314    0.0000 </r>
      </set>
      <set comment="kpoint 16">
       <r>   -9.1128    1.0000 </r>
       <r>   -9.1063    1.0000 </r>
       <r>   -8.8674    1.0000 </r>
       <r>   -8.8609    1.0000 </r>
       <r>   -2.6021    1.0000 </r>
       <r>   -2.5750    1.0000 </r>
       <r>   -1.6350    1.0000 </r>
       <r>   -1.6103    1.0000 </r>
       <r>   -0.9515    1.0000 </r>
       <r>   -0.8755    1.0000 </r>
       <r>   -0.0019    1.0000 </r>
       <r>    0.0023    1.0000 </r>
       <r>    1.2837    1.0000 </r>
       <r>    1.3031    1.0000 </r>
       <r>    2.1901    1.0000 </r>
       <r>    2.2022    1.0000 </r>
       <r>    2.5105    1.0000 </r>
       <r>    2.5141    1.0000 </r>
       <r>    5.3370    0.0000 </r>
       <r>    5.3408    0.0000 </r>
       <r>    5.8249    0.0000 </r>
       <r>    5.8806    0.0000 </r>
       <r>    6.9405    0.0000 </r>
       <r>    7.2005    0.0000 </r>
       <r>    7.4057    0.0000 </r>
       <r>    7.4460    0.0000 </r>
       <r>    9.2562    0.0000 </r>
       <r>    9.3353    0.0000 </r>
       <r>   10.9872    0.0000 </r>
       <r>   11.2239    0.0000 </r>
       <r>   11.3154    0.0000 </r>
       <r>   11.7596    0.0000 </r>
      </set>
      <set comment="kpoint 17">
       <r>   -9.1128    1.0000 </r>
       <r>   -9.1063    1.0000 </r>
       <r>   -8.8674    1.0000 </r>
       <r>   -8.8609    1.0000 </r>
       <r>   -2.6021    1.0000 </r>
       <r>   -2.5750    1.0000 </r>
       <r>   -1.6350    1.0000 </r>
       <r>   -1.6103    1.0000 </r>
       <r>   -0.9515    1.0000 </r>
       <r>   -0.8755    1.0000 </r>
       <r>   -0.0019    1.0000 </r>
       <r>    0.0023    1.0000 </r>
       <r>    1.2837    1.0000 </r>
       <r>    1.3031    1.0000 </r>
       <r>    2.1901    1.0000 </r>
       <r>    2.2022    1.0000 </r>
       <r>    2.5105    1.0000 </r>
       <r>    2.5141    1.0000 </r>
       <r>    5.3370    0.0000 </r>
       <r>    5.3408    0.0000 </r>
       <r>    5.8249    0.0000 </r>
       <r>    5.8806    0.0000 </r>
       <r>    6.9405    0.0000 </r>
       <r>    7.2005    0.0000 </r>
       <r>    7.4057    0.0000 </r>
       <r>    7.4460    0.0000 </r>
       <r>    9.2562    0.0000 </r>
       <r>    9.3353    0.0000 </r>
       <r>   10.9872    0.0000 </r>
       <r>   11.2241    0.0000 </r>
       <r>   11.3156    0.0000 </r>
       <r>   11.7589    0.0000 </r>
      </set>
      <set comment="kpoint 18">
       <r>   -9.1105    1.0000 </r>
       <r>   -9.1040    1.0000 </r>
       <r>   -8.8658    1.0000 </r>
       <r>   -8.8593    1.0000 </r>
       <r>   -2.5948    1.0000 </r>
       <r>   -2.5678    1.0000 </r>
       <r>   -1.6401    1.0000 </r>
       <r>   -1.6163    1.0000 </r>
       <r>   -0.9489    1.0000 </r>
       <r>   -0.8731    1.0000 </r>
       <r>   -0.0026    1.0000 </r>
       <r>   -0.0002    1.0000 </r>
       <r>    1.2848    1.0000 </r>
       <r>    1.3051    1.0000 </r>
       <r>    2.1347    1.0000 </r>
       <r>    2.1456    1.0000 </r>
       <r>    2.5402    1.0000 </r>
       <r>    2.5458    1.0000 </r>
       <r>    5.3413    0.0000 </r>
       <r>    5.3428    0.0000 </r>
       <r>    5.8268    0.0000 </r>
       <r>    5.8835    0.0000 </r>
       <r>    6.9501    0.0000 </r>
       <r>    7.2089    0.0000 </r>
       <r>    7.3825    0.0000 </r>
       <r>    7.4251    0.0000 </r>
       <r>    9.2670    0.0000 </r>
       <r>    9.3431    0.0000 </r>
       <r>   11.0271    0.0000 </r>
       <r>   11.2609    0.0000 </r>
       <r>   11.3444    0.0000 </r>
       <r>   11.7653    0.0000 </r>
      </set>
      <set comment="kpoint 19">
       <r>   -9.1036    1.0000 </r>
       <r>   -9.0971    1.0000 </r>
       <r>   -8.8610    1.0000 </r>
       <r>   -8.8546    1.0000 </r>
       <r>   -2.5732    1.0000 </r>
       <r>   -2.5463    1.0000 </r>
       <r>   -1.6555    1.0000 </r>
       <r>   -1.6341    1.0000 </r>
       <r>   -0.9411    1.0000 </r>
       <r>   -0.8659    1.0000 </r>
       <r>   -0.0067    1.0000 </r>
       <r>   -0.0042    1.0000 </r>
       <r>    1.2875    1.0000 </r>
       <r>    1.3104    1.0000 </r>
       <r>    2.0029    1.0000 </r>
       <r>    2.0131    1.0000 </r>
       <r>    2.5967    1.0000 </r>
       <r>    2.6056    1.0000 </r>
       <r>    5.3472    0.0000 </r>
       <r>    5.3523    0.0000 </r>
       <r>    5.8337    0.0000 </r>
       <r>    5.8930    0.0000 </r>
       <r>    6.9776    0.0000 </r>
       <r>    7.2252    0.0000 </r>
       <r>    7.3251    0.0000 </r>
       <r>    7.3661    0.0000 </r>
       <r>    9.2983    0.0000 </r>
       <r>    9.3664    0.0000 </r>
       <r>   11.1429    0.0000 </r>
       <r>   11.3687    0.0000 </r>
       <r>   11.4306    0.0000 </r>
       <r>   11.7829    0.0000 </r>
      </set>
      <set comment="kpoint 20">
       <r>   -9.0923    1.0000 </r>
       <r>   -9.0860    1.0000 </r>
       <r>   -8.8532    1.0000 </r>
       <r>   -8.8469    1.0000 </r>
       <r>   -2.5373    1.0000 </r>
       <r>   -2.5106    1.0000 </r>
       <r>   -1.6811    1.0000 </r>
       <r>   -1.6632    1.0000 </r>
       <r>   -0.9285    1.0000 </r>
       <r>   -0.8542    1.0000 </r>
       <r>   -0.0150    1.0000 </r>
       <r>   -0.0051    1.0000 </r>
       <r>    1.2905    1.0000 </r>
       <r>    1.3172    1.0000 </r>
       <r>    1.8294    1.0000 </r>
       <r>    1.8400    1.0000 </r>
       <r>    2.6506    1.0000 </r>
       <r>    2.6629    1.0000 </r>
       <r>    5.3500    0.0000 </r>
       <r>    5.3640    0.0000 </r>
       <r>    5.8494    0.0000 </r>
       <r>    5.9114    0.0000 </r>
       <r>    7.0182    0.0000 </r>
       <r>    7.1752    0.0000 </r>
       <r>    7.2811    0.0000 </r>
       <r>    7.3163    0.0000 </r>
       <r>    9.3473    0.0000 </r>
       <r>    9.4043    0.0000 </r>
       <r>   11.3231    0.0000 </r>
       <r>   11.5394    0.0000 </r>
       <r>   11.5707    0.0000 </r>
       <r>   11.8121    0.0000 </r>
      </set>
      <set comment="kpoint 21">
       <r>   -9.0770    1.0000 </r>
       <r>   -9.0708    1.0000 </r>
       <r>   -8.8427    1.0000 </r>
       <r>   -8.8365    1.0000 </r>
       <r>   -2.4875    1.0000 </r>
       <r>   -2.4611    1.0000 </r>
       <r>   -1.7165    1.0000 </r>
       <r>   -1.7030    1.0000 </r>
       <r>   -0.9116    1.0000 </r>
       <r>   -0.8387    1.0000 </r>
       <r>   -0.0221    1.0000 </r>
       <r>   -0.0033    1.0000 </r>
       <r>    1.2918    1.0000 </r>
       <r>    1.3228    1.0000 </r>
       <r>    1.6276    1.0000 </r>
       <r>    1.6395    1.0000 </r>
       <r>    2.6961    1.0000 </r>
       <r>    2.7115    1.0000 </r>
       <r>    5.3461    0.0000 </r>
       <r>    5.3682    0.0000 </r>
       <r>    5.8795    0.0000 </r>
       <r>    5.9418    0.0000 </r>
       <r>    7.0461    0.0000 </r>
       <r>    7.0527    0.0000 </r>
       <r>    7.2043    0.0000 </r>
       <r>    7.3726    0.0000 </r>
       <r>    9.4101    0.0000 </r>
       <r>    9.4562    0.0000 </r>
       <r>   11.5507    0.0000 </r>
       <r>   11.7585    0.0000 </r>
       <r>   11.7614    0.0000 </r>
       <r>   11.8569    0.0000 </r>
      </set>
      <set comment="kpoint 22">
       <r>   -9.0581    1.0000 </r>
       <r>   -9.0521    1.0000 </r>
       <r>   -8.8297    1.0000 </r>
       <r>   -8.8238    1.0000 </r>
       <r>   -2.4243    1.0000 </r>
       <r>   -2.3984    1.0000 </r>
       <r>   -1.7609    1.0000 </r>
       <r>   -1.7522    1.0000 </r>
       <r>   -0.8910    1.0000 </r>
       <r>   -0.8200    1.0000 </r>
       <r>   -0.0249    1.0000 </r>
       <r>    0.0030    1.0000 </r>
       <r>    1.2893    1.0000 </r>
       <r>    1.3245    1.0000 </r>
       <r>    1.4052    1.0000 </r>
       <r>    1.4190    1.0000 </r>
       <r>    2.7347    1.0000 </r>
       <r>    2.7528    1.0000 </r>
       <r>    5.3305    0.0000 </r>
       <r>    5.3575    0.0000 </r>
       <r>    5.9282    0.0000 </r>
       <r>    5.9861    0.0000 </r>
       <r>    6.9117    0.0000 </r>
       <r>    6.9838    0.0000 </r>
       <r>    7.2210    0.0000 </r>
       <r>    7.4484    0.0000 </r>
       <r>    9.4826    0.0000 </r>
       <r>    9.5212    0.0000 </r>
       <r>   11.7813    0.0000 </r>
       <r>   11.9518    0.0000 </r>
       <r>   11.9873    0.0000 </r>
       <r>   12.0230    0.0000 </r>
      </set>
      <set comment="kpoint 23">
       <r>   -9.0361    1.0000 </r>
       <r>   -9.0304    1.0000 </r>
       <r>   -8.8147    1.0000 </r>
       <r>   -8.8090    1.0000 </r>
       <r>   -2.3482    1.0000 </r>
       <r>   -2.3230    1.0000 </r>
       <r>   -1.8129    1.0000 </r>
       <r>   -1.8088    1.0000 </r>
       <r>   -0.8676    1.0000 </r>
       <r>   -0.7990    1.0000 </r>
       <r>   -0.0211    1.0000 </r>
       <r>    0.0157    1.0000 </r>
       <r>    1.1682    1.0000 </r>
       <r>    1.1841    1.0000 </r>
       <r>    1.2809    1.0000 </r>
       <r>    1.3199    1.0000 </r>
       <r>    2.7698    1.0000 </r>
       <r>    2.7900    1.0000 </r>
       <r>    5.3007    0.0000 </r>
       <r>    5.3285    0.0000 </r>
       <r>    5.9958    0.0000 </r>
       <r>    6.0446    0.0000 </r>
       <r>    6.7675    0.0000 </r>
       <r>    6.8691    0.0000 </r>
       <r>    7.2990    0.0000 </r>
       <r>    7.5342    0.0000 </r>
       <r>    9.5610    0.0000 </r>
       <r>    9.5987    0.0000 </r>
       <r>   11.9120    0.0000 </r>
       <r>   12.1964    0.0000 </r>
       <r>   12.2572    0.0000 </r>
       <r>   12.2997    0.0000 </r>
      </set>
      <set comment="kpoint 24">
       <r>   -9.0118    1.0000 </r>
       <r>   -9.0065    1.0000 </r>
       <r>   -8.7983    1.0000 </r>
       <r>   -8.7929    1.0000 </r>
       <r>   -2.2601    1.0000 </r>
       <r>   -2.2357    1.0000 </r>
       <r>   -1.8708    1.0000 </r>
       <r>   -1.8706    1.0000 </r>
       <r>   -0.8424    1.0000 </r>
       <r>   -0.7771    1.0000 </r>
       <r>   -0.0088    1.0000 </r>
       <r>    0.0354    1.0000 </r>
       <r>    0.9222    1.0000 </r>
       <r>    0.9402    1.0000 </r>
       <r>    1.2650    1.0000 </r>
       <r>    1.3069    1.0000 </r>
       <r>    2.8050    1.0000 </r>
       <r>    2.8267    1.0000 </r>
       <r>    5.2564    0.0000 </r>
       <r>    5.2821    0.0000 </r>
       <r>    6.0789    0.0000 </r>
       <r>    6.1151    0.0000 </r>
       <r>    6.6289    0.0000 </r>
       <r>    6.7498    0.0000 </r>
       <r>    7.3940    0.0000 </r>
       <r>    7.6245    0.0000 </r>
       <r>    9.6424    0.0000 </r>
       <r>    9.6881    0.0000 </r>
       <r>   11.9981    0.0000 </r>
       <r>   12.2076    0.0000 </r>
       <r>   12.5134    0.0000 </r>
       <r>   12.5395    0.0000 </r>
      </set>
      <set comment="kpoint 25">
       <r>   -8.9861    1.0000 </r>
       <r>   -8.9812    1.0000 </r>
       <r>   -8.7810    1.0000 </r>
       <r>   -8.7760    1.0000 </r>
       <r>   -2.1607    1.0000 </r>
       <r>   -2.1375    1.0000 </r>
       <r>   -1.9353    1.0000 </r>
       <r>   -1.9315    1.0000 </r>
       <r>   -0.8168    1.0000 </r>
       <r>   -0.7555    1.0000 </r>
       <r>    0.0125    1.0000 </r>
       <r>    0.0624    1.0000 </r>
       <r>    0.6729    1.0000 </r>
       <r>    0.6928    1.0000 </r>
       <r>    1.2409    1.0000 </r>
       <r>    1.2847    1.0000 </r>
       <r>    2.8431    1.0000 </r>
       <r>    2.8655    1.0000 </r>
       <r>    5.1993    0.0000 </r>
       <r>    5.2213    0.0000 </r>
       <r>    6.1723    0.0000 </r>
       <r>    6.1944    0.0000 </r>
       <r>    6.5017    0.0000 </r>
       <r>    6.6382    0.0000 </r>
       <r>    7.4950    0.0000 </r>
       <r>    7.7143    0.0000 </r>
       <r>    9.7248    0.0000 </r>
       <r>    9.7890    0.0000 </r>
       <r>   12.0164    0.0000 </r>
       <r>   12.0906    0.0000 </r>
       <r>   12.5151    0.0000 </r>
       <r>   12.7967    0.0000 </r>
      </set>
      <set comment="kpoint 26">
       <r>   -8.9599    1.0000 </r>
       <r>   -8.9554    1.0000 </r>
       <r>   -8.7635    1.0000 </r>
       <r>   -8.7590    1.0000 </r>
       <r>   -2.0513    1.0000 </r>
       <r>   -2.0296    1.0000 </r>
       <r>   -1.9995    1.0000 </r>
       <r>   -1.9928    1.0000 </r>
       <r>   -0.7924    1.0000 </r>
       <r>   -0.7363    1.0000 </r>
       <r>    0.0426    1.0000 </r>
       <r>    0.0959    1.0000 </r>
       <r>    0.4260    1.0000 </r>
       <r>    0.4475    1.0000 </r>
       <r>    1.2086    1.0000 </r>
       <r>    1.2529    1.0000 </r>
       <r>    2.8857    1.0000 </r>
       <r>    2.9083    1.0000 </r>
       <r>    5.1322    0.0000 </r>
       <r>    5.1499    0.0000 </r>
       <r>    6.2706    0.0000 </r>
       <r>    6.2787    0.0000 </r>
       <r>    6.3900    0.0000 </r>
       <r>    6.5396    0.0000 </r>
       <r>    7.5963    0.0000 </r>
       <r>    7.7984    0.0000 </r>
       <r>    9.8064    0.0000 </r>
       <r>    9.9007    0.0000 </r>
       <r>   11.7823    0.0000 </r>
       <r>   12.1954    0.0000 </r>
       <r>   12.2080    0.0000 </r>
       <r>   12.8422    0.0000 </r>
      </set>
      <set comment="kpoint 27">
       <r>   -8.9341    1.0000 </r>
       <r>   -8.9302    1.0000 </r>
       <r>   -8.7466    1.0000 </r>
       <r>   -8.7426    1.0000 </r>
       <r>   -2.0605    1.0000 </r>
       <r>   -2.0517    1.0000 </r>
       <r>   -1.9333    1.0000 </r>
       <r>   -1.9136    1.0000 </r>
       <r>   -0.7719    1.0000 </r>
       <r>   -0.7224    1.0000 </r>
       <r>    0.0802    1.0000 </r>
       <r>    0.1345    1.0000 </r>
       <r>    0.1885    1.0000 </r>
       <r>    0.2109    1.0000 </r>
       <r>    1.1691    1.0000 </r>
       <r>    1.2126    1.0000 </r>
       <r>    2.9332    1.0000 </r>
       <r>    2.9554    1.0000 </r>
       <r>    5.0587    0.0000 </r>
       <r>    5.0722    0.0000 </r>
       <r>    6.2963    0.0000 </r>
       <r>    6.3639    0.0000 </r>
       <r>    6.3684    0.0000 </r>
       <r>    6.4567    0.0000 </r>
       <r>    7.6933    0.0000 </r>
       <r>    7.8724    0.0000 </r>
       <r>    9.8853    0.0000 </r>
       <r>   10.0226    0.0000 </r>
       <r>   11.5368    0.0000 </r>
       <r>   11.9127    0.0000 </r>
       <r>   12.3127    0.0000 </r>
       <r>   12.8365    0.0000 </r>
      </set>
      <set comment="kpoint 28">
       <r>   -8.9101    1.0000 </r>
       <r>   -8.9068    1.0000 </r>
       <r>   -8.7310    1.0000 </r>
       <r>   -8.7276    1.0000 </r>
       <r>   -2.1155    1.0000 </r>
       <r>   -2.1051    1.0000 </r>
       <r>   -1.8086    1.0000 </r>
       <r>   -1.7916    1.0000 </r>
       <r>   -0.7598    1.0000 </r>
       <r>   -0.7196    1.0000 </r>
       <r>   -0.0298    1.0000 </r>
       <r>   -0.0083    1.0000 </r>
       <r>    0.1235    1.0000 </r>
       <r>    0.1757    1.0000 </r>
       <r>    1.1249    1.0000 </r>
       <r>    1.1658    1.0000 </r>
       <r>    2.9841    1.0000 </r>
       <r>    3.0056    1.0000 </r>
       <r>    4.9834    0.0000 </r>
       <r>    4.9932    0.0000 </r>
       <r>    6.2217    0.0000 </r>
       <r>    6.3908    0.0000 </r>
       <r>    6.4459    0.0000 </r>
       <r>    6.4603    0.0000 </r>
       <r>    7.7818    0.0000 </r>
       <r>    7.9325    0.0000 </r>
       <r>    9.9591    0.0000 </r>
       <r>   10.1537    0.0000 </r>
       <r>   11.3024    0.0000 </r>
       <r>   11.6322    0.0000 </r>
       <r>   12.4410    0.0000 </r>
       <r>   12.8263    0.0000 </r>
      </set>
      <set comment="kpoint 29">
       <r>   -8.8891    1.0000 </r>
       <r>   -8.8865    1.0000 </r>
       <r>   -8.7175    1.0000 </r>
       <r>   -8.7148    1.0000 </r>
       <r>   -2.1619    1.0000 </r>
       <r>   -2.1504    1.0000 </r>
       <r>   -1.6806    1.0000 </r>
       <r>   -1.6672    1.0000 </r>
       <r>   -0.7648    1.0000 </r>
       <r>   -0.7389    1.0000 </r>
       <r>   -0.2127    1.0000 </r>
       <r>   -0.1958    1.0000 </r>
       <r>    0.1695    1.0000 </r>
       <r>    0.2158    1.0000 </r>
       <r>    1.0801    1.0000 </r>
       <r>    1.1160    1.0000 </r>
       <r>    3.0350    1.0000 </r>
       <r>    3.0557    1.0000 </r>
       <r>    4.9122    0.0000 </r>
       <r>    4.9189    0.0000 </r>
       <r>    6.1664    0.0000 </r>
       <r>    6.3421    0.0000 </r>
       <r>    6.5203    0.0000 </r>
       <r>    6.5403    0.0000 </r>
       <r>    7.8585    0.0000 </r>
       <r>    7.9758    0.0000 </r>
       <r>   10.0237    0.0000 </r>
       <r>   10.2930    0.0000 </r>
       <r>   11.0961    0.0000 </r>
       <r>   11.3712    0.0000 </r>
       <r>   12.5741    0.0000 </r>
       <r>   12.8192    0.0000 </r>
      </set>
      <set comment="kpoint 30">
       <r>   -8.8722    1.0000 </r>
       <r>   -8.8704    1.0000 </r>
       <r>   -8.7068    1.0000 </r>
       <r>   -8.7050    1.0000 </r>
       <r>   -2.1974    1.0000 </r>
       <r>   -2.1852    1.0000 </r>
       <r>   -1.5558    1.0000 </r>
       <r>   -1.5473    1.0000 </r>
       <r>   -0.8002    1.0000 </r>
       <r>   -0.7948    1.0000 </r>
       <r>   -0.3371    1.0000 </r>
       <r>   -0.3300    1.0000 </r>
       <r>    0.2135    1.0000 </r>
       <r>    0.2494    1.0000 </r>
       <r>    1.0409    1.0000 </r>
       <r>    1.0685    1.0000 </r>
       <r>    3.0802    1.0000 </r>
       <r>    3.1003    1.0000 </r>
       <r>    4.8521    0.0000 </r>
       <r>    4.8563    0.0000 </r>
       <r>    6.1295    0.0000 </r>
       <r>    6.3097    0.0000 </r>
       <r>    6.5822    0.0000 </r>
       <r>    6.6025    0.0000 </r>
       <r>    7.9207    0.0000 </r>
       <r>    8.0007    0.0000 </r>
       <r>   10.0727    0.0000 </r>
       <r>   10.4393    0.0000 </r>
       <r>   10.9339    0.0000 </r>
       <r>   11.1348    0.0000 </r>
       <r>   12.6997    0.0000 </r>
       <r>   12.8167    0.0000 </r>
      </set>
      <set comment="kpoint 31">
       <r>   -8.8610    1.0000 </r>
       <r>   -8.8600    1.0000 </r>
       <r>   -8.6998    1.0000 </r>
       <r>   -8.6988    1.0000 </r>
       <r>   -2.2199    1.0000 </r>
       <r>   -2.2074    1.0000 </r>
       <r>   -1.4506    1.0000 </r>
       <r>   -1.4479    1.0000 </r>
       <r>   -0.8762    1.0000 </r>
       <r>   -0.8618    1.0000 </r>
       <r>   -0.3970    1.0000 </r>
       <r>   -0.3964    1.0000 </r>
       <r>    0.2496    1.0000 </r>
       <r>    0.2698    1.0000 </r>
       <r>    1.0152    1.0000 </r>
       <r>    1.0305    1.0000 </r>
       <r>    3.1126    1.0000 </r>
       <r>    3.1323    1.0000 </r>
       <r>    4.8112    0.0000 </r>
       <r>    4.8132    0.0000 </r>
       <r>    6.1092    0.0000 </r>
       <r>    6.2919    0.0000 </r>
       <r>    6.6267    0.0000 </r>
       <r>    6.6404    0.0000 </r>
       <r>    7.9664    0.0000 </r>
       <r>    8.0069    0.0000 </r>
       <r>   10.0998    0.0000 </r>
       <r>   10.5905    0.0000 </r>
       <r>   10.8307    0.0000 </r>
       <r>   10.9295    0.0000 </r>
       <r>   12.7947    0.0000 </r>
       <r>   12.8195    0.0000 </r>
      </set>
      <set comment="kpoint 32">
       <r>   -8.8566    1.0000 </r>
       <r>   -8.8566    1.0000 </r>
       <r>   -8.6969    1.0000 </r>
       <r>   -8.6969    1.0000 </r>
       <r>   -2.2277    1.0000 </r>
       <r>   -2.2151    1.0000 </r>
       <r>   -1.4046    1.0000 </r>
       <r>   -1.4046    1.0000 </r>
       <r>   -0.9205    1.0000 </r>
       <r>   -0.8978    1.0000 </r>
       <r>   -0.4123    1.0000 </r>
       <r>   -0.4123    1.0000 </r>
       <r>    0.2704    1.0000 </r>
       <r>    0.2704    1.0000 </r>
       <r>    1.0106    1.0000 </r>
       <r>    1.0107    1.0000 </r>
       <r>    3.1248    1.0000 </r>
       <r>    3.1444    1.0000 </r>
       <r>    4.7970    0.0000 </r>
       <r>    4.7970    0.0000 </r>
       <r>    6.1030    0.0000 </r>
       <r>    6.2866    0.0000 </r>
       <r>    6.6483    0.0000 </r>
       <r>    6.6483    0.0000 </r>
       <r>    7.9951    0.0000 </r>
       <r>    7.9952    0.0000 </r>
       <r>   10.1061    0.0000 </r>
       <r>   10.7147    0.0000 </r>
       <r>   10.7920    0.0000 </r>
       <r>   10.7920    0.0000 </r>
       <r>   12.8266    0.0000 </r>
       <r>   12.8267    0.0000 </r>
      </set>
      <set comment="kpoint 33">
       <r>   -8.8566    1.0000 </r>
       <r>   -8.8566    1.0000 </r>
       <r>   -8.6969    1.0000 </r>
       <r>   -8.6969    1.0000 </r>
       <r>   -2.2277    1.0000 </r>
       <r>   -2.2151    1.0000 </r>
       <r>   -1.4046    1.0000 </r>
       <r>   -1.4046    1.0000 </r>
       <r>   -0.9205    1.0000 </r>
       <r>   -0.8978    1.0000 </r>
       <r>   -0.4123    1.0000 </r>
       <r>   -0.4123    1.0000 </r>
       <r>    0.2704    1.0000 </r>
       <r>    0.2704    1.0000 </r>
       <r>    1.0106    1.0000 </r>
       <r>    1.0107    1.0000 </r>
       <r>    3.1248    1.0000 </r>
       <r>    3.1444    1.0000 </r>
       <r>    4.7970    0.0000 </r>
       <r>    4.7970    0.0000 </r>
       <r>    6.1030    0.0000 </r>
       <r>    6.2866    0.0000 </r>
       <r>    6.6483    0.0000 </r>
       <r>    6.6483    0.0000 </r>
       <r>    7.9951    0.0000 </r>
       <r>    7.9952    0.0000 </r>
       <r>   10.1061    0.0000 </r>
       <r>   10.7147    0.0000 </r>
       <r>   10.7920    0.0000 </r>
       <r>   10.7920    0.0000 </r>
       <r>   12.8267    0.0000 </r>
       <r>   12.8267    0.0000 </r>
      </set>
      <set comment="kpoint 34">
       <r>   -8.8755    1.0000 </r>
       <r>   -8.8734    1.0000 </r>
       <r>   -8.7083    1.0000 </r>
       <r>   -8.7060    1.0000 </r>
       <r>   -2.1942    1.0000 </r>
       <r>   -2.1819    1.0000 </r>
       <r>   -1.5501    1.0000 </r>
       <r>   -1.5377    1.0000 </r>
       <r>   -0.7651    1.0000 </r>
       <r>   -0.7616    1.0000 </r>
       <r>   -0.3833    1.0000 </r>
       <r>   -0.3637    1.0000 </r>
       <r>    0.2065    1.0000 </r>
       <r>    0.2465    1.0000 </r>
       <r>    1.0500    1.0000 </r>
       <r>    1.0764    1.0000 </r>
       <r>    3.0721    1.0000 </r>
       <r>    3.0916    1.0000 </r>
       <r>    4.8560    0.0000 </r>
       <r>    4.8630    0.0000 </r>
       <r>    6.1208    0.0000 </r>
       <r>    6.3018    0.0000 </r>
       <r>    6.5619    0.0000 </r>
       <r>    6.6058    0.0000 </r>
       <r>    7.9263    0.0000 </r>
       <r>    8.0039    0.0000 </r>
       <r>   10.1209    0.0000 </r>
       <r>   10.5287    0.0000 </r>
       <r>   10.8585    0.0000 </r>
       <r>   11.0918    0.0000 </r>
       <r>   12.6676    0.0000 </r>
       <r>   12.8440    0.0000 </r>
      </set>
      <set comment="kpoint 35">
       <r>   -8.9350    1.0000 </r>
       <r>   -8.9305    1.0000 </r>
       <r>   -8.7414    1.0000 </r>
       <r>   -8.7366    1.0000 </r>
       <r>   -2.0906    1.0000 </r>
       <r>   -2.0788    1.0000 </r>
       <r>   -1.7556    1.0000 </r>
       <r>   -1.7351    1.0000 </r>
       <r>   -0.5643    1.0000 </r>
       <r>   -0.5489    1.0000 </r>
       <r>   -0.2667    1.0000 </r>
       <r>   -0.2228    1.0000 </r>
       <r>    0.0891    1.0000 </r>
       <r>    0.1545    1.0000 </r>
       <r>    1.1834    1.0000 </r>
       <r>    1.2163    1.0000 </r>
       <r>    2.9330    1.0000 </r>
       <r>    2.9508    1.0000 </r>
       <r>    5.0050    0.0000 </r>
       <r>    5.0302    0.0000 </r>
       <r>    6.1531    0.0000 </r>
       <r>    6.3291    0.0000 </r>
       <r>    6.3526    0.0000 </r>
       <r>    6.4410    0.0000 </r>
       <r>    7.8195    0.0000 </r>
       <r>    7.9613    0.0000 </r>
       <r>   10.2271    0.0000 </r>
       <r>   10.4890    0.0000 </r>
       <r>   11.0158    0.0000 </r>
       <r>   11.4490    0.0000 </r>
       <r>   12.3746    0.0000 </r>
       <r>   12.8417    0.0000 </r>
      </set>
      <set comment="kpoint 36">
       <r>   -9.0386    1.0000 </r>
       <r>   -9.0317    1.0000 </r>
       <r>   -8.7964    1.0000 </r>
       <r>   -8.7887    1.0000 </r>
       <r>   -1.9160    1.0000 </r>
       <r>   -1.9047    1.0000 </r>
       <r>   -1.8997    1.0000 </r>
       <r>   -1.8744    1.0000 </r>
       <r>   -0.4662    1.0000 </r>
       <r>   -0.4620    1.0000 </r>
       <r>   -0.0348    1.0000 </r>
       <r>   -0.0013    1.0000 </r>
       <r>    0.0330    1.0000 </r>
       <r>    0.0457    1.0000 </r>
       <r>    1.3664    1.0000 </r>
       <r>    1.3902    1.0000 </r>
       <r>    2.7582    1.0000 </r>
       <r>    2.7721    1.0000 </r>
       <r>    5.1631    0.0000 </r>
       <r>    5.2307    0.0000 </r>
       <r>    6.0784    0.0000 </r>
       <r>    6.1665    0.0000 </r>
       <r>    6.1821    0.0000 </r>
       <r>    6.3402    0.0000 </r>
       <r>    7.7055    0.0000 </r>
       <r>    7.8902    0.0000 </r>
       <r>   10.4250    0.0000 </r>
       <r>   10.6125    0.0000 </r>
       <r>   11.2015    0.0000 </r>
       <r>   11.8424    0.0000 </r>
       <r>   12.0768    0.0000 </r>
       <r>   12.8377    0.0000 </r>
      </set>
      <set comment="kpoint 37">
       <r>   -9.1848    1.0000 </r>
       <r>   -9.1754    1.0000 </r>
       <r>   -8.8710    1.0000 </r>
       <r>   -8.8602    1.0000 </r>
       <r>   -1.9649    1.0000 </r>
       <r>   -1.9349    1.0000 </r>
       <r>   -1.6746    1.0000 </r>
       <r>   -1.6633    1.0000 </r>
       <r>   -0.4642    1.0000 </r>
       <r>   -0.4336    1.0000 </r>
       <r>   -0.1352    1.0000 </r>
       <r>   -0.0442    1.0000 </r>
       <r>    0.3191    1.0000 </r>
       <r>    0.3383    1.0000 </r>
       <r>    1.5668    1.0000 </r>
       <r>    1.5717    1.0000 </r>
       <r>    2.5933    1.0000 </r>
       <r>    2.6016    1.0000 </r>
       <r>    5.2369    0.0000 </r>
       <r>    5.3941    0.0000 </r>
       <r>    5.8302    0.0000 </r>
       <r>    5.8946    0.0000 </r>
       <r>    6.1331    0.0000 </r>
       <r>    6.3119    0.0000 </r>
       <r>    7.6075    0.0000 </r>
       <r>    7.8091    0.0000 </r>
       <r>   10.6559    0.0000 </r>
       <r>   10.8616    0.0000 </r>
       <r>   11.3717    0.0000 </r>
       <r>   11.8105    0.0000 </r>
       <r>   12.2842    0.0000 </r>
       <r>   12.7326    0.0000 </r>
      </set>
      <set comment="kpoint 38">
       <r>   -9.3668    1.0000 </r>
       <r>   -9.3552    1.0000 </r>
       <r>   -8.9611    1.0000 </r>
       <r>   -8.9472    1.0000 </r>
       <r>   -1.9576    1.0000 </r>
       <r>   -1.9208    1.0000 </r>
       <r>   -1.3755    1.0000 </r>
       <r>   -1.3633    1.0000 </r>
       <r>   -0.5096    1.0000 </r>
       <r>   -0.4578    1.0000 </r>
       <r>   -0.1944    1.0000 </r>
       <r>   -0.0948    1.0000 </r>
       <r>    0.6358    1.0000 </r>
       <r>    0.6442    1.0000 </r>
       <r>    1.7436    1.0000 </r>
       <r>    1.7654    1.0000 </r>
       <r>    2.4628    1.0000 </r>
       <r>    2.4662    1.0000 </r>
       <r>    5.1627    0.0000 </r>
       <r>    5.4257    0.0000 </r>
       <r>    5.6949    0.0000 </r>
       <r>    5.7008    0.0000 </r>
       <r>    6.0457    0.0000 </r>
       <r>    6.2358    0.0000 </r>
       <r>    7.5263    0.0000 </r>
       <r>    7.7207    0.0000 </r>
       <r>   10.8320    0.0000 </r>
       <r>   11.1953    0.0000 </r>
       <r>   11.5163    0.0000 </r>
       <r>   11.5826    0.0000 </r>
       <r>   12.6779    0.0000 </r>
       <r>   12.7876    0.0000 </r>
      </set>
      <set comment="kpoint 39">
       <r>   -9.5742    1.0000 </r>
       <r>   -9.5608    1.0000 </r>
       <r>   -9.0618    1.0000 </r>
       <r>   -9.0447    1.0000 </r>
       <r>   -1.8986    1.0000 </r>
       <r>   -1.8502    1.0000 </r>
       <r>   -1.0339    1.0000 </r>
[...]
       <r>   12.6008    0.0000 </r>
       <r>   12.6008    0.0000 </r>
      </set>
      <set comment="kpoint 142">
       <r>   -8.8566    1.0000 </r>
       <r>   -8.8566    1.0000 </r>
       <r>   -8.6969    1.0000 </r>
       <r>   -8.6969    1.0000 </r>
       <r>   -2.2228    1.0000 </r>
       <r>   -2.2202    1.0000 </r>
       <r>   -1.4043    1.0000 </r>
       <r>   -1.4043    1.0000 </r>
       <r>   -0.9115    1.0000 </r>
       <r>   -0.9068    1.0000 </r>
       <r>   -0.4148    1.0000 </r>
       <r>   -0.4148    1.0000 </r>
       <r>    0.2750    1.0000 </r>
       <r>    0.2750    1.0000 </r>
       <r>    1.0080    1.0000 </r>
       <r>    1.0080    1.0000 </r>
       <r>    3.1324    1.0000 </r>
       <r>    3.1365    1.0000 </r>
       <r>    4.7970    0.0000 </r>
       <r>    4.7970    0.0000 </r>
       <r>    6.1730    0.0000 </r>
       <r>    6.2111    0.0000 </r>
       <r>    6.6500    0.0000 </r>
       <r>    6.6500    0.0000 </r>
       <r>    7.9915    0.0000 </r>
       <r>    7.9915    0.0000 </r>
       <r>   10.3273    0.0000 </r>
       <r>   10.4520    0.0000 </r>
       <r>   10.8307    0.0000 </r>
       <r>   10.8307    0.0000 </r>
       <r>   12.5900    0.0000 </r>
       <r>   12.5900    0.0000 </r>
      </set>
      <set comment="kpoint 143">
       <r>   -8.8566    1.0000 </r>
       <r>   -8.8566    1.0000 </r>
       <r>   -8.6969    1.0000 </r>
       <r>   -8.6969    1.0000 </r>
       <r>   -2.2221    1.0000 </r>
       <r>   -2.2208    1.0000 </r>
       <r>   -1.4042    1.0000 </r>
       <r>   -1.4042    1.0000 </r>
       <r>   -0.9103    1.0000 </r>
       <r>   -0.9079    1.0000 </r>
       <r>   -0.4149    1.0000 </r>
       <r>   -0.4149    1.0000 </r>
       <r>    0.2751    1.0000 </r>
       <r>    0.2751    1.0000 </r>
       <r>    1.0079    1.0000 </r>
       <r>    1.0079    1.0000 </r>
       <r>    3.1334    1.0000 </r>
       <r>    3.1355    1.0000 </r>
       <r>    4.7970    0.0000 </r>
       <r>    4.7970    0.0000 </r>
       <r>    6.1824    0.0000 </r>
       <r>    6.2016    0.0000 </r>
       <r>    6.6501    0.0000 </r>
       <r>    6.6501    0.0000 </r>
       <r>    7.9913    0.0000 </r>
       <r>    7.9914    0.0000 </r>
       <r>   10.3577    0.0000 </r>
       <r>   10.4203    0.0000 </r>
       <r>   10.8321    0.0000 </r>
       <r>   10.8321    0.0000 </r>
       <r>   12.5833    0.0000 </r>
       <r>   12.5833    0.0000 </r>
      </set>
      <set comment="kpoint 144">
       <r>   -8.8566    1.0000 </r>
       <r>   -8.8566    1.0000 </r>
       <r>   -8.6969    1.0000 </r>
       <r>   -8.6969    1.0000 </r>
       <r>   -2.2215    1.0000 </r>
       <r>   -2.2215    1.0000 </r>
       <r>   -1.4042    1.0000 </r>
       <r>   -1.4042    1.0000 </r>
       <r>   -0.9091    1.0000 </r>
       <r>   -0.9091    1.0000 </r>
       <r>   -0.4149    1.0000 </r>
       <r>   -0.4149    1.0000 </r>
       <r>    0.2752    1.0000 </r>
       <r>    0.2752    1.0000 </r>
       <r>    1.0079    1.0000 </r>
       <r>    1.0079    1.0000 </r>
       <r>    3.1345    1.0000 </r>
       <r>    3.1345    1.0000 </r>
       <r>    4.7970    0.0000 </r>
       <r>    4.7970    0.0000 </r>
       <r>    6.1919    0.0000 </r>
       <r>    6.1920    0.0000 </r>
       <r>    6.6501    0.0000 </r>
       <r>    6.6501    0.0000 </r>
       <r>    7.9913    0.0000 </r>
       <r>    7.9913    0.0000 </r>
       <r>   10.3888    0.0000 </r>
       <r>   10.3888    0.0000 </r>
       <r>   10.8325    0.0000 </r>
       <r>   10.8325    0.0000 </r>
       <r>   12.5811    0.0000 </r>
       <r>   12.5811    0.0000 </r>
      </set>
     </set>
    </set>
   </array>
  </eigenvalues>
  <separator name="orbital magnetization" >
   <v name="MAGDIPOLOUT">      0.00000000      0.00000000      0.00000000</v>
  </separator>
  <dos>
   <i name="efermi">      3.56814245 </i>
   <total>
    <array>
     <dimension dim="1">gridpoints</dimension>
     <dimension dim="2">spin</dimension>
     <field>energy</field>
     <field>total</field>
     <field>integrated</field>
     <set>
      <set comment="spin 1">
       <r>   -12.1358     0.0000     0.0000 </r>
       <r>   -12.0466     0.0000     0.0000 </r>
       <r>   -11.9574     0.0000     0.0000 </r>
       <r>   -11.8682     0.0000     0.0000 </r>
       <r>   -11.7791     0.0000     0.0000 </r>
       <r>   -11.6899     0.0000     0.0000 </r>
       <r>   -11.6007     0.0000     0.0000 </r>
       <r>   -11.5115     0.0000     0.0000 </r>
       <r>   -11.4223     0.0000     0.0000 </r>
       <r>   -11.3331     0.0000     0.0000 </r>
       <r>   -11.2439     0.0000     0.0000 </r>
       <r>   -11.1547     0.0000     0.0000 </r>
       <r>   -11.0655     0.0000     0.0000 </r>
       <r>   -10.9763     0.2166     0.0193 </r>
       <r>   -10.8871     5.1818     0.4815 </r>
       <r>   -10.7979     3.2797     0.7740 </r>
       <r>   -10.7087     1.1313     0.8750 </r>
       <r>   -10.6195     0.8372     0.9496 </r>
       <r>   -10.5303     0.8730     1.0275 </r>
       <r>   -10.4411     0.5047     1.0725 </r>
       <r>   -10.3519     0.9100     1.1537 </r>
       <r>   -10.2627     0.2762     1.1783 </r>
       <r>   -10.1735     0.9722     1.2650 </r>
       <r>   -10.0843     0.1919     1.2822 </r>
       <r>    -9.9951     0.8756     1.3603 </r>
       <r>    -9.9059     0.3409     1.3907 </r>
       <r>    -9.8168     0.5772     1.4421 </r>
       <r>    -9.7276     1.7356     1.5970 </r>
       <r>    -9.6384     7.2717     2.2456 </r>
       <r>    -9.5492     3.3897     2.5479 </r>
       <r>    -9.4600     2.1780     2.7422 </r>
       <r>    -9.3708     1.8126     2.9039 </r>
       <r>    -9.2816     2.0869     3.0900 </r>
       <r>    -9.1924     1.9925     3.2677 </r>
       <r>    -9.1032     6.8092     3.8751 </r>
       <r>    -9.0140     7.3268     4.5286 </r>
       <r>    -8.9248     4.9433     4.9695 </r>
       <r>    -8.8356    15.8145     6.3801 </r>
       <r>    -8.7464     8.6937     7.1555 </r>
       <r>    -8.6572     8.4249     7.9070 </r>
       <r>    -8.5680     1.0417     7.9999 </r>
       <r>    -8.4788     0.0010     8.0000 </r>
       <r>    -8.3896     0.0000     8.0000 </r>
       <r>    -8.3004     0.0000     8.0000 </r>
       <r>    -8.2112     0.0000     8.0000 </r>
       <r>    -8.1220     0.0000     8.0000 </r>
       <r>    -8.0328     0.0000     8.0000 </r>
       <r>    -7.9436     0.0000     8.0000 </r>
       <r>    -7.8545     0.0000     8.0000 </r>
       <r>    -7.7653     0.0000     8.0000 </r>
       <r>    -7.6761     0.0000     8.0000 </r>
       <r>    -7.5869     0.0000     8.0000 </r>
       <r>    -7.4977     0.0000     8.0000 </r>
       <r>    -7.4085     0.0000     8.0000 </r>
       <r>    -7.3193     0.0000     8.0000 </r>
       <r>    -7.2301     0.0000     8.0000 </r>
       <r>    -7.1409     0.0000     8.0000 </r>
       <r>    -7.0517     0.0000     8.0000 </r>
       <r>    -6.9625     0.0000     8.0000 </r>
       <r>    -6.8733     0.0000     8.0000 </r>
       <r>    -6.7841     0.0000     8.0000 </r>
       <r>    -6.6949     0.0000     8.0000 </r>
       <r>    -6.6057     0.0000     8.0000 </r>
       <r>    -6.5165     0.0000     8.0000 </r>
       <r>    -6.4273     0.0000     8.0000 </r>
       <r>    -6.3381     0.0000     8.0000 </r>
       <r>    -6.2489     0.0000     8.0000 </r>
       <r>    -6.1597     0.0000     8.0000 </r>
       <r>    -6.0705     0.0000     8.0000 </r>
       <r>    -5.9813     0.0000     8.0000 </r>
       <r>    -5.8922     0.0000     8.0000 </r>
       <r>    -5.8030     0.0000     8.0000 </r>
       <r>    -5.7138     0.0000     8.0000 </r>
       <r>    -5.6246     0.0000     8.0000 </r>
       <r>    -5.5354     0.0000     8.0000 </r>
       <r>    -5.4462     0.0000     8.0000 </r>
       <r>    -5.3570     0.0000     8.0000 </r>
       <r>    -5.2678     0.0000     8.0000 </r>
       <r>    -5.1786     0.0000     8.0000 </r>
       <r>    -5.0894     0.0000     8.0000 </r>
       <r>    -5.0002     0.0000     8.0000 </r>
       <r>    -4.9110     0.0000     8.0000 </r>
       <r>    -4.8218     0.0000     8.0000 </r>
       <r>    -4.7326     0.0000     8.0000 </r>
       <r>    -4.6434     0.0000     8.0000 </r>
       <r>    -4.5542     0.0000     8.0000 </r>
       <r>    -4.4650     0.0000     8.0000 </r>
       <r>    -4.3758     0.0000     8.0000 </r>
       <r>    -4.2866     0.0000     8.0000 </r>
       <r>    -4.1974     0.0000     8.0000 </r>
       <r>    -4.1082     0.0000     8.0000 </r>
       <r>    -4.0190     0.0000     8.0000 </r>
       <r>    -3.9299     0.0000     8.0000 </r>
       <r>    -3.8407     0.0000     8.0000 </r>
       <r>    -3.7515     0.0000     8.0000 </r>
       <r>    -3.6623     0.0000     8.0000 </r>
       <r>    -3.5731     0.0000     8.0000 </r>
       <r>    -3.4839     0.0000     8.0000 </r>
       <r>    -3.3947     0.0000     8.0000 </r>
       <r>    -3.3055     0.0000     8.0000 </r>
       <r>    -3.2163     0.0000     8.0000 </r>
       <r>    -3.1271     0.0000     8.0000 </r>
       <r>    -3.0379     0.0000     8.0000 </r>
       <r>    -2.9487     0.0000     8.0000 </r>
       <r>    -2.8595     0.0000     8.0000 </r>
       <r>    -2.7703     0.0000     8.0000 </r>
       <r>    -2.6811     0.0384     8.0034 </r>
       <r>    -2.5919     3.3781     8.3047 </r>
       <r>    -2.5027     6.5308     8.8873 </r>
       <r>    -2.4135     4.9341     9.3274 </r>
       <r>    -2.3243     4.6641     9.7434 </r>
       <r>    -2.2351     4.8277    10.1740 </r>
       <r>    -2.1459     7.7206    10.8626 </r>
       <r>    -2.0567     3.4464    11.1700 </r>
       <r>    -1.9676     3.1011    11.4466 </r>
       <r>    -1.8784     4.9210    11.8856 </r>
       <r>    -1.7892     4.1247    12.2535 </r>
       <r>    -1.7000     3.4716    12.5631 </r>
       <r>    -1.6108     6.8445    13.1736 </r>
       <r>    -1.5216     4.2402    13.5518 </r>
       <r>    -1.4324     2.5029    13.7751 </r>
       <r>    -1.3432     5.7688    14.2896 </r>
       <r>    -1.2540     0.5748    14.3409 </r>
       <r>    -1.1648     0.4657    14.3824 </r>
       <r>    -1.0756     0.1488    14.3957 </r>
       <r>    -0.9864     1.3671    14.5176 </r>
       <r>    -0.8972     9.6546    15.3788 </r>
       <r>    -0.8080     9.4515    16.2218 </r>
       <r>    -0.7188     5.7754    16.7370 </r>
       <r>    -0.6296     3.0186    17.0062 </r>
       <r>    -0.5404     2.5632    17.2348 </r>
       <r>    -0.4512     3.2998    17.5292 </r>
       <r>    -0.3620     7.4631    18.1948 </r>
       <r>    -0.2728     2.4758    18.4157 </r>
       <r>    -0.1836     2.0396    18.5976 </r>
       <r>    -0.0944     2.3507    18.8073 </r>
       <r>    -0.0053     7.7794    19.5012 </r>
       <r>     0.0839    10.0845    20.4007 </r>
       <r>     0.1731     4.0635    20.7631 </r>
       <r>     0.2623     6.4255    21.3362 </r>
       <r>     0.3515     6.4741    21.9137 </r>
       <r>     0.4407     2.6682    22.1517 </r>
       <r>     0.5299     7.2911    22.8020 </r>
       <r>     0.6191    10.1978    23.7116 </r>
       <r>     0.7083     3.1282    23.9906 </r>
       <r>     0.7975     2.3809    24.2030 </r>
       <r>     0.8867     1.5851    24.3444 </r>
       <r>     0.9759     3.7774    24.6813 </r>
       <r>     1.0651     8.1070    25.4044 </r>
       <r>     1.1543     5.2118    25.8693 </r>
       <r>     1.2435     5.8531    26.3914 </r>
       <r>     1.3327    12.2675    27.4856 </r>
       <r>     1.4219     5.4307    27.9700 </r>
       <r>     1.5111     3.0726    28.2440 </r>
       <r>     1.6003     3.4691    28.5534 </r>
       <r>     1.6895    12.8809    29.7024 </r>
       <r>     1.7787     4.9452    30.1435 </r>
       <r>     1.8679     2.1490    30.3351 </r>
       <r>     1.9570     2.5202    30.5599 </r>
       <r>     2.0462     2.7132    30.8019 </r>
       <r>     2.1354     3.5142    31.1154 </r>
       <r>     2.2246     8.4404    31.8682 </r>
       <r>     2.3138     3.6257    32.1916 </r>
       <r>     2.4030     2.6491    32.4279 </r>
       <r>     2.4922     3.7122    32.7590 </r>
       <r>     2.5814     6.3817    33.3283 </r>
       <r>     2.6706     2.0602    33.5120 </r>
       <r>     2.7598     2.3500    33.7216 </r>
       <r>     2.8490     2.5418    33.9483 </r>
       <r>     2.9382     3.0290    34.2185 </r>
       <r>     3.0274     3.7165    34.5500 </r>
       <r>     3.1166     5.4038    35.0320 </r>
       <r>     3.2058     7.3156    35.6845 </r>
       <r>     3.2950     1.8780    35.8520 </r>
       <r>     3.3842     1.5699    35.9921 </r>
       <r>     3.4734     0.0890    36.0000 </r>
       <r>     3.5626     0.0000    36.0000 </r>
       <r>     3.6518     0.0000    36.0000 </r>
       <r>     3.7410     0.0000    36.0000 </r>
       <r>     3.8302     0.0000    36.0000 </r>
       <r>     3.9193     0.0000    36.0000 </r>
       <r>     4.0085     0.0000    36.0000 </r>
       <r>     4.0977     0.0000    36.0000 </r>
       <r>     4.1869     0.0000    36.0000 </r>
       <r>     4.2761     0.0000    36.0000 </r>
       <r>     4.3653     0.0000    36.0000 </r>
       <r>     4.4545     0.0000    36.0000 </r>
       <r>     4.5437     0.0000    36.0000 </r>
       <r>     4.6329     0.0000    36.0000 </r>
       <r>     4.7221     0.1099    36.0098 </r>
       <r>     4.8113     4.4138    36.4035 </r>
       <r>     4.9005     3.6456    36.7287 </r>
       <r>     4.9897     1.2588    36.8409 </r>
       <r>     5.0789     1.7567    36.9976 </r>
       <r>     5.1681     1.9585    37.1723 </r>
       <r>     5.2573     2.9076    37.4317 </r>
       <r>     5.3465    10.1335    38.3355 </r>
       <r>     5.4357     7.3933    38.9950 </r>
       <r>     5.5249     2.3938    39.2085 </r>
       <r>     5.6141     3.4787    39.5188 </r>
       <r>     5.7033     5.0094    39.9656 </r>
       <r>     5.7925     5.8213    40.4848 </r>
       <r>     5.8816    11.5269    41.5130 </r>
       <r>     5.9708    17.1801    43.0454 </r>
       <r>     6.0600     6.4206    43.6180 </r>
       <r>     6.1492    12.3723    44.7216 </r>
       <r>     6.2384    14.2136    45.9894 </r>
       <r>     6.3276     5.6207    46.4907 </r>
       <r>     6.4168     2.8045    46.7409 </r>
       <r>     6.5060     2.5354    46.9670 </r>
       <r>     6.5952     3.0561    47.2396 </r>
       <r>     6.6844     7.0051    47.8644 </r>
       <r>     6.7736     2.6580    48.1015 </r>
       <r>     6.8628     1.3606    48.2229 </r>
       <r>     6.9520     2.4225    48.4389 </r>
       <r>     7.0412     4.0892    48.8037 </r>
       <r>     7.1304     3.6952    49.1333 </r>
       <r>     7.2196     3.3509    49.4322 </r>
       <r>     7.3088     2.7044    49.6734 </r>
       <r>     7.3980     4.4603    50.0712 </r>
       <r>     7.4872     6.6362    50.6631 </r>
       <r>     7.5764     1.4536    50.7928 </r>
       <r>     7.6656     1.1802    50.8981 </r>
       <r>     7.7548     1.2226    51.0071 </r>
       <r>     7.8440     1.3131    51.1242 </r>
       <r>     7.9331     1.9047    51.2941 </r>
       <r>     8.0223     6.3977    51.8648 </r>
       <r>     8.1115     1.5129    51.9997 </r>
       <r>     8.2007     0.0032    52.0000 </r>
       <r>     8.2899     0.0000    52.0000 </r>
       <r>     8.3791     0.0000    52.0000 </r>
       <r>     8.4683     0.0000    52.0000 </r>
       <r>     8.5575     0.0000    52.0000 </r>
       <r>     8.6467     0.0000    52.0000 </r>
       <r>     8.7359     0.0000    52.0000 </r>
       <r>     8.8251     0.0000    52.0000 </r>
       <r>     8.9143     0.0000    52.0000 </r>
       <r>     9.0035     0.0246    52.0022 </r>
       <r>     9.0927     0.8729    52.0800 </r>
       <r>     9.1819     1.2498    52.1915 </r>
       <r>     9.2711     2.0649    52.3757 </r>
       <r>     9.3603     6.2952    52.9372 </r>
       <r>     9.4495     3.7832    53.2747 </r>
       <r>     9.5387     1.7481    53.4306 </r>
       <r>     9.6279     2.4027    53.6449 </r>
       <r>     9.7171     1.8775    53.8123 </r>
       <r>     9.8063     1.0887    53.9095 </r>
       <r>     9.8954     0.9981    53.9985 </r>
       <r>     9.9846     1.3292    54.1170 </r>
       <r>    10.0738     1.6378    54.2631 </r>
       <r>    10.1630     2.3308    54.4710 </r>
       <r>    10.2522     3.3745    54.7720 </r>
       <r>    10.3414     7.2327    55.4171 </r>
       <r>    10.4306     4.2559    55.7967 </r>
       <r>    10.5198     2.5204    56.0215 </r>
       <r>    10.6090     2.4747    56.2423 </r>
       <r>    10.6982     2.1739    56.4362 </r>
       <r>    10.7874     3.4281    56.7419 </r>
       <r>    10.8766     6.1408    57.2897 </r>
       <r>    10.9658     4.1977    57.6641 </r>
       <r>    11.0550     4.9154    58.1025 </r>
       <r>    11.1442     2.9655    58.3670 </r>
       <r>    11.2334     3.2618    58.6580 </r>
       <r>    11.3226     2.7842    58.9063 </r>
       <r>    11.4118     2.9867    59.1727 </r>
       <r>    11.5010     3.7278    59.5052 </r>
       <r>    11.5902     3.5545    59.8223 </r>
       <r>    11.6794     2.0817    60.0079 </r>
       <r>    11.7686     2.5064    60.2315 </r>
       <r>    11.8577     3.1884    60.5159 </r>
       <r>    11.9469     1.8672    60.6824 </r>
       <r>    12.0361     2.4744    60.9031 </r>
       <r>    12.1253     0.9433    60.9873 </r>
       <r>    12.2145     1.8476    61.1521 </r>
       <r>    12.3037     7.1108    61.7863 </r>
       <r>    12.3929     3.9609    62.1396 </r>
       <r>    12.4821     1.2293    62.2493 </r>
       <r>    12.5713     2.3271    62.4569 </r>
       <r>    12.6605     3.3467    62.7554 </r>
       <r>    12.7497     2.8781    63.0121 </r>
       <r>    12.8389     3.6047    63.3336 </r>
       <r>    12.9281     2.6236    63.5676 </r>
       <r>    13.0173     1.2957    63.6832 </r>
       <r>    13.1065     1.1961    63.7899 </r>
       <r>    13.1957     0.7514    63.8569 </r>
       <r>    13.2849     0.8063    63.9288 </r>
       <r>    13.3741     0.5599    63.9787 </r>
       <r>    13.4633     0.2292    63.9992 </r>
       <r>    13.5525     0.0091    64.0000 </r>
       <r>    13.6417     0.0000    64.0000 </r>
       <r>    13.7309     0.0000    64.0000 </r>
       <r>    13.8200     0.0000    64.0000 </r>
       <r>    13.9092     0.0000    64.0000 </r>
       <r>    13.9984     0.0000    64.0000 </r>
       <r>    14.0876     0.0000    64.0000 </r>
       <r>    14.1768     0.0000    64.0000 </r>
       <r>    14.2660     0.0000    64.0000 </r>
       <r>    14.3552     0.0000    64.0000 </r>
       <r>    14.4444     0.0000    64.0000 </r>
       <r>    14.5336     0.0000    64.0000 </r>
       <r>    14.6228     0.0000    64.0000 </r>
      </set>
     </set>
    </array>
   </total>
  </dos>
 </calculation>
 <structure name="finalpos" >
  <crystal>
   <varray name="basis" >
    <v>       3.18531719       0.00000000       0.00000000 </v>
    <v>      -1.59265860       2.75856491       0.00000000 </v>
    <v>       0.00000000       0.00000000      14.86003508 </v>
   </varray>
   <i name="volume">    130.57370526 </i>
   <varray name="rec_basis" >
    <v>       0.31394048       0.18125366       0.00000000 </v>
    <v>       0.00000000       0.36250733       0.00000000 </v>
    <v>       0.00000000       0.00000000       0.06729459 </v>
   </varray>
  </crystal>
  <varray name="positions" >
   <v>       0.66666700       0.33333300       0.25000000 </v>
   <v>       0.33333300       0.66666700       0.75000000 </v>
   <v>       0.33333300       0.66666700       0.14490265 </v>
   <v>       0.66666700       0.33333300       0.64490265 </v>
   <v>       0.33333300       0.66666700       0.35509735 </v>
   <v>       0.66666700       0.33333300       0.85509735 </v>
  </varray>
 </structure>
</modeling>
