<?xml version="1.0" encoding="ISO-8859-1"?>
<modeling>
 <generator>
  <i name="program" type="string">vasp </i>
  <i name="version" type="string">5.4.4.18Apr17-6-g9f103f2a35  </i>
  <i name="subversion" type="string">(build Jan 06 2022 15:41:42) complex            parallel </i>
  <i name="platform" type="string">LinuxIFC </i>
  <i name="date" type="string">2022 02 14 </i>
  <i name="time" type="string">17:47:52 </i>
 </generator>
 <incar>
  <i type="string" name="SYSTEM"> MoS2</i>
  <i type="string" name="PREC">accurate</i>
  <i type="string" name="ALGO"> Exact</i>
  <i type="int" name="NELM">     4</i>
  <i name="EDIFF">      0.00000010</i>
  <i name="ENCUT">    400.00000000</i>
  <i type="int" name="NBANDS">    65</i>
  <i type="int" name="NEDOS">  3000</i>
  <i type="logical" name="LREAL"> F  </i>
  <i type="int" name="ISMEAR">     0</i>
  <i name="SIGMA">      0.05000000</i>
  <i type="logical" name="LWAVE"> T  </i>
  <i type="logical" name="LOPTICS"> T  </i>
  <i type="logical" name="LASPH"> T  </i>
  <v type="int" name="KPOINT_BSE">    -1     0     0     0</v>
  <i name="CSHIFT">      0.10000000</i>
  <i type="int" name="NELM">     4</i>
  <i name="CSHIFT">      0.10000000</i>
  <i type="logical" name="LASPH"> T  </i>
 </incar>
 <structure name="primitive_cell" >
  <crystal>
   <varray name="basis" >
    <v>       1.59265383      -2.75855735       0.00000000 </v>
    <v>       1.59265383       2.75855735       0.00000000 </v>
    <v>       0.00000000       0.00000000      13.98103146 </v>
   </varray>
   <i name="volume">    122.84928053 </i>
   <varray name="rec_basis" >
    <v>       0.31394142      -0.18125416       0.00000000 </v>
    <v>       0.31394142       0.18125416       0.00000000 </v>
    <v>       0.00000000       0.00000000       0.07152548 </v>
   </varray>
  </crystal>
  <varray name="positions" >
   <v>       0.33333333      -0.33333333       0.25000000 </v>
   <v>      -0.33333333       0.33333333       0.36189349 </v>
   <v>      -0.33333333       0.33333333       0.13810650 </v>
   <v>       0.33333333      -0.33333333      -0.13810647 </v>
   <v>       0.33333333      -0.33333333      -0.36189349 </v>
   <v>      -0.33333333       0.33333333      -0.25000000 </v>
  </varray>
 </structure>
 <varray name="primitive_index" >
  <v type="int" >        1 </v>
  <v type="int" >        4 </v>
  <v type="int" >        5 </v>
  <v type="int" >        6 </v>
  <v type="int" >        3 </v>
  <v type="int" >        2 </v>
 </varray>
 <kpoints>
  <generation param="Gamma">
   <v type="int" name="divisions">      12       12        1 </v>
   <v name="usershift">      0.00000000       0.00000000       0.00000000 </v>
   <v name="genvec1">      0.08333333      -0.00000000       0.00000000 </v>
   <v name="genvec2">     -0.00000000       0.08333333       0.00000000 </v>
   <v name="genvec3">      0.00000000       0.00000000       1.00000000 </v>
   <v name="shift">      0.00000000       0.00000000       0.00000000 </v>
  </generation>
  <varray name="kpointlist" >
   <v>       0.00000000       0.00000000       0.00000000 </v>
   <v>       0.08333333      -0.00000000       0.00000000 </v>
   <v>       0.16666667      -0.00000000       0.00000000 </v>
   <v>       0.25000000      -0.00000000       0.00000000 </v>
   <v>       0.33333333      -0.00000000       0.00000000 </v>
   <v>       0.41666667      -0.00000000       0.00000000 </v>
   <v>       0.50000000      -0.00000000       0.00000000 </v>
   <v>       0.08333333       0.08333333       0.00000000 </v>
   <v>       0.16666667       0.08333333       0.00000000 </v>
   <v>       0.25000000       0.08333333       0.00000000 </v>
   <v>       0.33333333       0.08333333       0.00000000 </v>
   <v>       0.41666667       0.08333333       0.00000000 </v>
   <v>       0.16666667       0.16666667       0.00000000 </v>
   <v>       0.25000000       0.16666667       0.00000000 </v>
   <v>       0.33333333       0.16666667       0.00000000 </v>
   <v>       0.41666667       0.16666667       0.00000000 </v>
   <v>       0.25000000       0.25000000       0.00000000 </v>
   <v>       0.33333333       0.25000000       0.00000000 </v>
   <v>       0.33333333       0.33333333       0.00000000 </v>
  </varray>
  <varray name="weights" >
   <v>       0.00694444 </v>
   <v>       0.04166667 </v>
   <v>       0.04166667 </v>
   <v>       0.04166667 </v>
   <v>       0.04166667 </v>
   <v>       0.04166667 </v>
   <v>       0.02083333 </v>
   <v>       0.04166667 </v>
   <v>       0.08333333 </v>
   <v>       0.08333333 </v>
   <v>       0.08333333 </v>
   <v>       0.08333333 </v>
   <v>       0.04166667 </v>
   <v>       0.08333333 </v>
   <v>       0.08333333 </v>
   <v>       0.04166667 </v>
   <v>       0.04166667 </v>
   <v>       0.08333333 </v>
   <v>       0.01388889 </v>
  </varray>
 </kpoints>
 <parameters>
  <separator name="general" >
   <i type="string" name="SYSTEM">MoS2</i>
   <i type="logical" name="LCOMPAT"> F  </i>
  </separator>
  <separator name="electronic" >
   <i type="string" name="PREC">accura</i>
   <i name="ENMAX">    400.00000000</i>
   <i name="ENAUG">    964.74100000</i>
   <i name="EDIFF">      0.00000010</i>
   <i type="int" name="IALGO">    90</i>
   <i type="int" name="IWAVPR">    10</i>
   <i type="int" name="NBANDS">    65</i>
   <i name="NELECT">     52.00000000</i>
   <i type="int" name="TURBO">     0</i>
   <i type="int" name="IRESTART">     0</i>
   <i type="int" name="NREBOOT">     0</i>
   <i type="int" name="NMIN">     0</i>
   <i name="EREF">      0.00000000</i>
   <separator name="electronic smearing" >
    <i type="int" name="ISMEAR">     0</i>
    <i name="SIGMA">      0.05000000</i>
    <i name="KSPACING">      0.50000000</i>
    <i type="logical" name="KGAMMA"> T  </i>
   </separator>
   <separator name="electronic projectors" >
    <i type="logical" name="LREAL"> F  </i>
    <v name="ROPT">      0.00000000      0.00000000</v>
    <i type="int" name="LMAXPAW">  -100</i>
    <i type="int" name="LMAXMIX">     2</i>
    <i type="logical" name="NLSPLINE"> F  </i>
   </separator>
   <separator name="electronic startup" >
    <i type="int" name="ISTART">     1</i>
    <i type="int" name="ICHARG">     0</i>
    <i type="int" name="INIWAV">     1</i>
   </separator>
   <separator name="electronic spin" >
    <i type="int" name="ISPIN">     1</i>
    <i type="logical" name="LNONCOLLINEAR"> F  </i>
    <v name="MAGMOM">      1.00000000      1.00000000      1.00000000      1.00000000      1.00000000      1.00000000</v>
    <i name="NUPDOWN">     -1.00000000</i>
    <i type="logical" name="LSORBIT"> F  </i>
    <v name="SAXIS">      0.00000000      0.00000000      1.00000000</v>
    <i type="logical" name="LSPIRAL"> F  </i>
    <v name="QSPIRAL">      0.00000000      0.00000000      0.00000000</v>
    <i type="logical" name="LZEROZ"> F  </i>
   </separator>
   <separator name="electronic exchange-correlation" >
    <i type="logical" name="LASPH"> T  </i>
    <i type="logical" name="LMETAGGA"> F  </i>
   </separator>
   <separator name="electronic convergence" >
    <i type="int" name="NELM">     4</i>
    <i type="int" name="NELMDL">     0</i>
    <i type="int" name="NELMIN">     2</i>
    <i name="ENINI">    400.00000000</i>
    <separator name="electronic convergence detail" >
     <i type="logical" name="LDIAG"> T  </i>
     <i type="logical" name="LSUBROT"> F  </i>
     <i name="WEIMIN">      0.00000000</i>
     <i name="EBREAK">      0.00000000</i>
     <i name="DEPER">      0.30000000</i>
     <i type="int" name="NRMM">     4</i>
     <i name="TIME">      0.40000000</i>
    </separator>
   </separator>
   <separator name="electronic mixer" >
    <i name="AMIX">      0.40000000</i>
    <i name="BMIX">      1.00000000</i>
    <i name="AMIN">      0.10000000</i>
    <i name="AMIX_MAG">      1.60000000</i>
    <i name="BMIX_MAG">      1.00000000</i>
    <separator name="electronic mixer details" >
     <i type="int" name="IMIX">     4</i>
     <i type="logical" name="MIXFIRST"> F  </i>
     <i type="int" name="MAXMIX">   -45</i>
     <i name="WC">    100.00000000</i>
     <i type="int" name="INIMIX">     1</i>
     <i type="int" name="MIXPRE">     1</i>
     <i type="int" name="MREMOVE">     5</i>
    </separator>
   </separator>
   <separator name="electronic dipolcorrection" >
    <i type="logical" name="LDIPOL"> F  </i>
    <i type="logical" name="LMONO"> F  </i>
    <i type="int" name="IDIPOL">     0</i>
    <i name="EPSILON">      1.00000000</i>
    <v name="DIPOL">   -100.00000000   -100.00000000   -100.00000000</v>
    <i name="EFIELD">      0.00000000</i>
   </separator>
  </separator>
  <separator name="grids" >
   <i type="int" name="NGX">    24</i>
   <i type="int" name="NGY">    24</i>
   <i type="int" name="NGZ">    96</i>
   <i type="int" name="NGXF">    48</i>
   <i type="int" name="NGYF">    48</i>
   <i type="int" name="NGZF">   192</i>
   <i type="logical" name="ADDGRID"> F  </i>
  </separator>
  <separator name="ionic" >
   <i type="int" name="NSW">     0</i>
   <i type="int" name="IBRION">    -1</i>
   <i type="int" name="MDALGO">     0</i>
   <i type="int" name="ISIF">     2</i>
   <i name="PSTRESS">      0.00000000</i>
   <i name="EDIFFG">      0.00000100</i>
   <i type="int" name="NFREE">     0</i>
   <i name="POTIM">      0.50000000</i>
   <i name="SMASS">     -3.00000000</i>
   <i name="SCALEE">      1.00000000</i>
  </separator>
  <separator name="ionic md" >
   <i name="TEBEG">      0.00010000</i>
   <i name="TEEND">      0.00010000</i>
   <i type="int" name="NBLOCK">     1</i>
   <i type="int" name="KBLOCK">     1</i>
   <i type="int" name="NPACO">   256</i>
   <i name="APACO">     16.00000000</i>
  </separator>
  <separator name="symmetry" >
   <i type="int" name="ISYM">     2</i>
   <i name="SYMPREC">      0.00001000</i>
  </separator>
  <separator name="dos" >
   <i type="int" name="LORBIT">     0</i>
   <v name="RWIGS">     -1.00000000     -1.00000000</v>
   <i type="int" name="NEDOS">  3000</i>
   <i name="EMIN">     10.00000000</i>
   <i name="EMAX">    -10.00000000</i>
   <i name="EFERMI">      0.00000000</i>
  </separator>
  <separator name="writing" >
   <i type="int" name="NWRITE">     2</i>
   <i type="logical" name="LWAVE"> T  </i>
   <i type="logical" name="LDOWNSAMPLE"> F  </i>
   <i type="logical" name="LCHARG"> T  </i>
   <i type="logical" name="LPARD"> F  </i>
   <i type="logical" name="LVTOT"> F  </i>
   <i type="logical" name="LVHAR"> F  </i>
   <i type="logical" name="LELF"> F  </i>
   <i type="logical" name="LOPTICS"> T  </i>
   <v name="STM">      0.00000000      0.00000000      0.00000000      0.00000000      0.00000000      0.00000000      0.00000000</v>
  </separator>
  <separator name="performance" >
   <i type="int" name="NPAR">     1</i>
   <i type="int" name="NSIM">     4</i>
   <i type="int" name="NBLK">    -1</i>
   <i type="logical" name="LPLANE"> T  </i>
   <i type="logical" name="LSCALAPACK"> T  </i>
   <i type="logical" name="LSCAAWARE"> F  </i>
   <i type="logical" name="LSCALU"> F  </i>
   <i type="logical" name="LASYNC"> F  </i>
   <i type="logical" name="LORBITALREAL"> F  </i>
  </separator>
  <separator name="miscellaneous" >
   <i type="int" name="IDIOT">     3</i>
   <i type="int" name="ISPECIAL">     0</i>
   <i type="logical" name="LMUSIC"> F  </i>
   <v name="POMASS">     95.94000000     32.06600000</v>
   <v name="DARWINR">      0.00000000      0.00000000</v>
   <v name="DARWINV">      1.00000000      1.00000000</v>
   <i type="logical" name="LCORR"> T  </i>
  </separator>
  <i type="logical" name="GGA_COMPAT"> T  </i>
  <i type="logical" name="LBERRY"> F  </i>
  <i type="int" name="ICORELEVEL">     0</i>
  <i type="logical" name="LDAU"> F  </i>
  <i type="int" name="I_CONSTRAINED_M">     0</i>
  <separator name="electronic exchange-correlation" >
   <i type="string" name="GGA">--</i>
   <i type="int" name="VOSKOWN">     0</i>
   <i type="logical" name="LHFCALC"> F  </i>
   <i type="string" name="PRECFOCK"></i>
   <i type="logical" name="LSYMGRAD"> F  </i>
   <i type="logical" name="LHFONE"> F  </i>
   <i type="logical" name="LRHFCALC"> F  </i>
   <i type="logical" name="LTHOMAS"> F  </i>
   <i type="logical" name="LMODELHF"> F  </i>
   <i name="ENCUT4O">     -1.00000000</i>
   <i type="int" name="EXXOEP">     0</i>
   <i type="int" name="FOURORBIT">     0</i>
   <i name="AEXX">      0.00000000</i>
   <i name="HFALPHA">      0.00000000</i>
   <i name="MCALPHA">      0.00000000</i>
   <i name="ALDAX">      1.00000000</i>
   <i name="AGGAX">      1.00000000</i>
   <i name="ALDAC">      1.00000000</i>
   <i name="AGGAC">      1.00000000</i>
   <i type="int" name="NKREDX">     1</i>
   <i type="int" name="NKREDY">     1</i>
   <i type="int" name="NKREDZ">     1</i>
   <i type="logical" name="SHIFTRED"> F  </i>
   <i type="logical" name="ODDONLY"> F  </i>
   <i type="logical" name="EVENONLY"> F  </i>
   <i type="int" name="LMAXFOCK">     0</i>
   <i type="int" name="NMAXFOCKAE">     0</i>
   <i type="logical" name="LFOCKAEDFT"> F  </i>
   <i name="HFSCREEN">      0.00000000</i>
   <i name="HFSCREENC">      0.00000000</i>
   <i type="int" name="NBANDSGWLOW">     0</i>
  </separator>
  <separator name="vdW DFT" >
   <i type="logical" name="LUSE_VDW"> F  </i>
   <i name="Zab_VDW">     -0.84910000</i>
   <i name="PARAM1">      0.12340000</i>
   <i name="PARAM2">      1.00000000</i>
   <i name="PARAM3">      0.00000000</i>
  </separator>
  <separator name="model GW" >
   <i type="int" name="MODEL_GW">     0</i>
   <i name="MODEL_EPS0">     12.28492805</i>
   <i name="MODEL_ALPHA">      1.00000000</i>
  </separator>
  <separator name="linear response parameters" >
   <i type="logical" name="LEPSILON"> F  </i>
   <i type="logical" name="LRPA"> F  </i>
   <i type="logical" name="LNABLA"> F  </i>
   <i type="logical" name="LVEL"> F  </i>
   <i type="int" name="KINTER">     0</i>
   <i name="CSHIFT">      0.10000000</i>
   <i name="OMEGAMAX">     -1.00000000</i>
   <i name="DEG_THRESHOLD">      0.00200000</i>
   <i name="RTIME">     -0.10000000</i>
   <i name="WPLASMAI">      0.00000000</i>
   <v name="DFIELD">      0.00000000      0.00000000      0.00000000</v>
   <v name="WPLASMA">      0.00000000      0.00000000      0.00000000      0.00000000      0.00000000      0.00000000      0.00000000      0.00000000      0.00000000</v>
  </separator>
  <separator name="orbital magnetization" >
   <i type="logical" name="NUCIND"> F  </i>
   <v name="MAGPOS">      0.00000000      0.00000000      0.00000000</v>
   <i type="logical" name="LNICSALL"> T  </i>
   <i type="logical" name="ORBITALMAG"> F  </i>
   <i type="logical" name="LMAGBLOCH"> F  </i>
   <i type="logical" name="LCHIMAG"> F  </i>
   <i type="logical" name="LGAUGE"> T  </i>
   <i type="int" name="MAGATOM">     0</i>
   <v name="MAGDIPOL">      0.00000000      0.00000000      0.00000000</v>
   <v name="AVECCONST">      0.00000000      0.00000000      0.00000000</v>
  </separator>
  <separator name="response functions" >
   <i type="logical" name="LADDER"> F  </i>
   <i type="logical" name="LRPAFORCE"> F  </i>
   <i type="logical" name="LFXC"> F  </i>
   <i type="logical" name="LHARTREE"> T  </i>
   <i type="int" name="IBSE">     0</i>
   <v type="int" name="KPOINT">    -1     0     0     0</v>
   <i type="logical" name="LTCTE"> F  </i>
   <i type="logical" name="LTETE"> F  </i>
   <i type="logical" name="LTRIPLET"> F  </i>
   <i type="logical" name="LFXCEPS"> F  </i>
   <i type="logical" name="LFXHEG"> F  </i>
   <i type="int" name="NATURALO">     2</i>
   <i type="logical" name="L2ORDER"> F  </i>
   <i type="logical" name="LMP2LT"> F  </i>
   <i type="logical" name="LUSEW"> F  </i>
   <i name="ENCUTGW">     -2.00000000</i>
   <i name="ENCUTGWSOFT">     -2.00000000</i>
   <i name="ENCUTLF">     -1.00000000</i>
   <i type="int" name="LMAXMP2">    -1</i>
   <i name="SCISSOR">      0.00000000</i>
   <i type="int" name="NOMEGA">     0</i>
   <i type="int" name="NOMEGAR">     0</i>
   <i type="int" name="NBANDSGW">    -1</i>
   <i type="int" name="NBANDSO">    -1</i>
   <i type="int" name="NBANDSV">    -1</i>
   <i type="int" name="NELM">     4</i>
   <i type="int" name="NELMHF">     1</i>
   <i type="int" name="DIM">     3</i>
   <i type="int" name="ANTIRES">     0</i>
   <i name="OMEGAMAX">    -30.00000000</i>
   <i name="OMEGAMIN">    -30.00000000</i>
   <i name="OMEGATL">   -200.00000000</i>
   <i type="int" name="OMEGAGRID">   140</i>
   <i name="CSHIFT">      0.10000000</i>
   <i type="logical" name="SELFENERGY"> F  </i>
   <i type="logical" name="LSPECTRAL"> F  </i>
   <i type="logical" name="LSPECTRALGW"> F  </i>
   <i type="logical" name="LSINGLES"> F  </i>
   <i type="logical" name="LFERMIGW"> F  </i>
   <i type="logical" name="ODDONLYGW"> F  </i>
   <i type="logical" name="EVENONLYGW"> F  </i>
   <i type="int" name="NKREDLFX">     1</i>
   <i type="int" name="NKREDLFY">     1</i>
   <i type="int" name="NKREDLFZ">     1</i>
   <i type="int" name="MAXMEM">  2800</i>
   <i type="int" name="TELESCOPE">     0</i>
   <i type="int" name="TAUPAR">     1</i>
   <i type="int" name="OMEGAPAR">    -1</i>
   <i name="LAMBDA">      1.00000000</i>
  </separator>
  <separator name="External order field" >
   <i name="OFIELD_KAPPA">      0.00000000</i>
   <v name="OFIELD_K">      0.00000000      0.00000000      0.00000000</v>
   <i name="OFIELD_Q6_NEAR">      0.00000000</i>
   <i name="OFIELD_Q6_FAR">      0.00000000</i>
   <i name="OFIELD_A">      0.00000000</i>
  </separator>
 </parameters>
 <atominfo>
  <atoms>       6 </atoms>
  <types>       2 </types>
  <array name="atoms" >
   <dimension dim="1">ion</dimension>
   <field type="string">element</field>
   <field type="int">atomtype</field>
   <set>
    <rc><c>Mo</c><c>   1</c></rc>
    <rc><c>Mo</c><c>   1</c></rc>
    <rc><c>S </c><c>   2</c></rc>
    <rc><c>S </c><c>   2</c></rc>
    <rc><c>S </c><c>   2</c></rc>
    <rc><c>S </c><c>   2</c></rc>
   </set>
  </array>
  <array name="atomtypes" >
   <dimension dim="1">type</dimension>
   <field type="int">atomspertype</field>
   <field type="string">element</field>
   <field>mass</field>
   <field>valence</field>
   <field type="string">pseudopotential</field>
   <set>
    <rc><c>   2</c><c>Mo</c><c>     95.94000000</c><c>     14.00000000</c><c>  PAW_PBE Mo_sv_GW 05Dec2013            </c></rc>
    <rc><c>   4</c><c>S </c><c>     32.06600000</c><c>      6.00000000</c><c>  PAW_PBE S_GW 19Mar2012                </c></rc>
   </set>
  </array>
 </atominfo>
 <structure name="initialpos" >
  <crystal>
   <varray name="basis" >
    <v>       1.59265383      -2.75855735       0.00000000 </v>
    <v>       1.59265383       2.75855735       0.00000000 </v>
    <v>       0.00000000       0.00000000      13.98103146 </v>
   </varray>
   <i name="volume">    122.84928053 </i>
   <varray name="rec_basis" >
    <v>       0.31394142      -0.18125416       0.00000000 </v>
    <v>       0.31394142       0.18125416       0.00000000 </v>
    <v>       0.00000000       0.00000000       0.07152548 </v>
   </varray>
  </crystal>
  <varray name="positions" >
   <v>       0.33333333       0.66666667       0.25000000 </v>
   <v>       0.66666667       0.33333333       0.75000000 </v>
   <v>       0.33333333       0.66666667       0.63810651 </v>
   <v>       0.66666667       0.33333333       0.36189349 </v>
   <v>       0.66666667       0.33333333       0.13810650 </v>
   <v>       0.33333333       0.66666667       0.86189353 </v>
  </varray>
 </structure>
 <calculation>
  <scstep>
   <time name="diag">   13.01   13.03</time>
   <time name="total">   13.21   13.42</time>
   <energy>
    <i name="alphaZ">    155.66116136 </i>
    <i name="ewald">  -2596.29725923 </i>
    <i name="hartreedc">  -2064.46819435 </i>
    <i name="XCdc">    165.39361444 </i>
    <i name="pawpsdc">   3843.97604312 </i>
    <i name="pawaedc">  -3805.39559643 </i>
    <i name="eentropy">     -0.00000000 </i>
    <i name="bandstr">   -574.21896434 </i>
    <i name="atom">   4830.14373692 </i>
    <i name="e_fr_energy">    -45.20545851 </i>
    <i name="e_wo_entrp">    -45.20545851 </i>
    <i name="e_0_energy">    -45.20545851 </i>
   </energy>
  </scstep>
  <scstep>
   <time name="diag">   12.98   12.99</time>
   <time name="total">   13.34   13.35</time>
   <energy>
    <i name="alphaZ">    155.66116136 </i>
    <i name="ewald">  -2596.29725923 </i>
    <i name="hartreedc">  -2064.46863205 </i>
    <i name="XCdc">    165.39362359 </i>
    <i name="pawpsdc">   3843.97699001 </i>
    <i name="pawaedc">  -3805.39653135 </i>
    <i name="eentropy">     -0.00000000 </i>
    <i name="bandstr">   -574.21854777 </i>
    <i name="atom">   4830.14373692 </i>
    <i name="e_fr_energy">    -45.20545851 </i>
    <i name="e_wo_entrp">    -45.20545851 </i>
    <i name="e_0_energy">    -45.20545851 </i>
   </energy>
  </scstep>
  <structure>
   <crystal>
    <varray name="basis" >
     <v>       1.59265383      -2.75855735       0.00000000 </v>
     <v>       1.59265383       2.75855735       0.00000000 </v>
     <v>       0.00000000       0.00000000      13.98103146 </v>
    </varray>
    <i name="volume">    122.84928053 </i>
    <varray name="rec_basis" >
     <v>       0.31394142      -0.18125416       0.00000000 </v>
     <v>       0.31394142       0.18125416       0.00000000 </v>
     <v>       0.00000000       0.00000000       0.07152548 </v>
    </varray>
   </crystal>
   <varray name="positions" >
    <v>       0.33333333       0.66666667       0.25000000 </v>
    <v>       0.66666667       0.33333333       0.75000000 </v>
    <v>       0.33333333       0.66666667       0.63810651 </v>
    <v>       0.66666667       0.33333333       0.36189349 </v>
    <v>       0.66666667       0.33333333       0.13810650 </v>
    <v>       0.33333333       0.66666667       0.86189353 </v>
   </varray>
  </structure>
  <varray name="forces" >
   <v>      -0.00000000      -0.00000000       0.00000000 </v>
   <v>      -0.00000000      -0.00000000       0.00000000 </v>
   <v>       0.00000000      -0.00000000       0.01754614 </v>
   <v>       0.00000000       0.00000000      -0.01754614 </v>
   <v>      -0.00000000       0.00000000       0.01754614 </v>
   <v>      -0.00000000       0.00000000      -0.01754614 </v>
  </varray>
  <varray name="stress" >
   <v>      -0.23563655       0.00000000       0.00000000 </v>
   <v>       0.00000000      -0.23563655      -0.00000000 </v>
   <v>      -0.00000000       0.00000000       0.09738451 </v>
  </varray>
  <energy>
   <i name="e_fr_energy">    -45.20545851 </i>
   <i name="e_wo_entrp">    -45.20545851 </i>
   <i name="e_0_energy">     -0.00000000 </i>
  </energy>
  <time name="totalsc">   28.02   28.42</time>
  <eigenvalues>
   <array>
    <dimension dim="1">band</dimension>
    <dimension dim="2">kpoint</dimension>
    <dimension dim="3">spin</dimension>
    <field>eigene</field>
    <field>occ</field>
    <set>
     <set comment="spin 1">
      <set comment="kpoint 1">
       <r>  -55.7096    1.0000 </r>
       <r>  -55.7095    1.0000 </r>
       <r>  -29.8419    1.0000 </r>
       <r>  -29.8416    1.0000 </r>
       <r>  -29.6380    1.0000 </r>
       <r>  -29.6380    1.0000 </r>
       <r>  -29.6380    1.0000 </r>
       <r>  -29.6380    1.0000 </r>
       <r>   -8.9197    1.0000 </r>
       <r>   -8.8712    1.0000 </r>
       <r>   -7.6448    1.0000 </r>
       <r>   -7.5595    1.0000 </r>
       <r>   -0.5750    1.0000 </r>
       <r>   -0.2578    1.0000 </r>
       <r>    2.5752    1.0000 </r>
       <r>    2.5752    1.0000 </r>
       <r>    2.5769    1.0000 </r>
       <r>    2.5769    1.0000 </r>
       <r>    2.9582    1.0000 </r>
       <r>    3.6735    1.0000 </r>
       <r>    3.6735    1.0000 </r>
       <r>    3.6794    1.0000 </r>
       <r>    3.6794    1.0000 </r>
       <r>    3.9015    1.0000 </r>
       <r>    4.9075    1.0000 </r>
       <r>    5.4844    1.0000 </r>
       <r>    7.9216    0.0000 </r>
       <r>    7.9216    0.0000 </r>
       <r>    7.9263    0.0000 </r>
       <r>    7.9263    0.0000 </r>
       <r>    8.1546    0.0000 </r>
       <r>    8.1546    0.0000 </r>
       <r>    8.1816    0.0000 </r>
       <r>    8.1816    0.0000 </r>
       <r>   11.1452    0.0000 </r>
       <r>   11.4080    0.0000 </r>
       <r>   12.6514    0.0000 </r>
       <r>   13.1522    0.0000 </r>
       <r>   14.1089    0.0000 </r>
       <r>   14.2321    0.0000 </r>
       <r>   15.8608    0.0000 </r>
       <r>   15.8608    0.0000 </r>
       <r>   15.9557    0.0000 </r>
       <r>   15.9557    0.0000 </r>
       <r>   17.0683    0.0000 </r>
       <r>   17.8060    0.0000 </r>
       <r>   17.8060    0.0000 </r>
       <r>   18.0139    0.0000 </r>
       <r>   18.0139    0.0000 </r>
       <r>   18.1210    0.0000 </r>
       <r>   19.2186    0.0000 </r>
       <r>   20.8393    0.0000 </r>
       <r>   20.9995    0.0000 </r>
       <r>   20.9995    0.0000 </r>
       <r>   21.0987    0.0000 </r>
       <r>   21.0987    0.0000 </r>
       <r>   21.2424    0.0000 </r>
       <r>   21.2424    0.0000 </r>
       <r>   21.4173    0.0000 </r>
       <r>   21.6038    0.0000 </r>
       <r>   21.6103    0.0000 </r>
       <r>   21.6103    0.0000 </r>
       <r>   22.5725    0.0000 </r>
       <r>   24.4072    0.0000 </r>
       <r>   24.5689    0.0000 </r>
      </set>
      <set comment="kpoint 2">
       <r>  -55.7071    1.0000 </r>
       <r>  -55.7071    1.0000 </r>
       <r>  -29.8370    1.0000 </r>
       <r>  -29.8368    1.0000 </r>
       <r>  -29.6632    1.0000 </r>
       <r>  -29.6632    1.0000 </r>
       <r>  -29.6438    1.0000 </r>
       <r>  -29.6437    1.0000 </r>
       <r>   -8.8179    1.0000 </r>
       <r>   -8.7698    1.0000 </r>
       <r>   -7.6014    1.0000 </r>
       <r>   -7.5189    1.0000 </r>
       <r>   -0.4579    1.0000 </r>
       <r>   -0.1420    1.0000 </r>
       <r>    2.3468    1.0000 </r>
       <r>    2.3498    1.0000 </r>
       <r>    2.6480    1.0000 </r>
       <r>    2.6811    1.0000 </r>
       <r>    2.6837    1.0000 </r>
       <r>    3.1163    1.0000 </r>
       <r>    3.5107    1.0000 </r>
       <r>    3.5176    1.0000 </r>
       <r>    3.8501    1.0000 </r>
       <r>    4.2764    1.0000 </r>
       <r>    4.8928    1.0000 </r>
       <r>    5.3755    1.0000 </r>
       <r>    7.7802    0.0000 </r>
       <r>    7.8141    0.0000 </r>
       <r>    7.8559    0.0000 </r>
       <r>    7.9659    0.0000 </r>
       <r>    8.0371    0.0000 </r>
       <r>    8.0693    0.0000 </r>
       <r>    8.0960    0.0000 </r>
       <r>    8.1082    0.0000 </r>
       <r>   11.5973    0.0000 </r>
       <r>   11.8858    0.0000 </r>
       <r>   12.8321    0.0000 </r>
       <r>   13.2307    0.0000 </r>
       <r>   14.5573    0.0000 </r>
       <r>   14.7055    0.0000 </r>
       <r>   15.5296    0.0000 </r>
       <r>   15.6120    0.0000 </r>
       <r>   16.1831    0.0000 </r>
       <r>   16.2781    0.0000 </r>
       <r>   17.0556    0.0000 </r>
       <r>   17.2668    0.0000 </r>
       <r>   17.3192    0.0000 </r>
       <r>   17.8248    0.0000 </r>
       <r>   18.0754    0.0000 </r>
       <r>   18.1003    0.0000 </r>
       <r>   18.9795    0.0000 </r>
       <r>   20.2755    0.0000 </r>
       <r>   20.3726    0.0000 </r>
       <r>   20.6885    0.0000 </r>
       <r>   21.1445    0.0000 </r>
       <r>   21.1895    0.0000 </r>
       <r>   21.3081    0.0000 </r>
       <r>   21.3627    0.0000 </r>
       <r>   21.4193    0.0000 </r>
       <r>   21.4750    0.0000 </r>
       <r>   22.3917    0.0000 </r>
       <r>   22.5927    0.0000 </r>
       <r>   23.0220    0.0000 </r>
       <r>   24.8100    0.0000 </r>
       <r>   25.3057    0.0000 </r>
      </set>
      <set comment="kpoint 3">
       <r>  -55.7003    1.0000 </r>
       <r>  -55.7003    1.0000 </r>
       <r>  -29.8234    1.0000 </r>
       <r>  -29.8233    1.0000 </r>
       <r>  -29.7316    1.0000 </r>
       <r>  -29.7316    1.0000 </r>
       <r>  -29.6594    1.0000 </r>
       <r>  -29.6594    1.0000 </r>
       <r>   -8.5283    1.0000 </r>
       <r>   -8.4816    1.0000 </r>
       <r>   -7.4779    1.0000 </r>
       <r>   -7.4036    1.0000 </r>
       <r>   -0.1588    1.0000 </r>
       <r>    0.1441    1.0000 </r>
       <r>    1.8179    1.0000 </r>
       <r>    1.8332    1.0000 </r>
       <r>    2.1022    1.0000 </r>
       <r>    2.4138    1.0000 </r>
       <r>    2.9764    1.0000 </r>
       <r>    2.9814    1.0000 </r>
       <r>    3.1275    1.0000 </r>
       <r>    3.1360    1.0000 </r>
       <r>    3.9060    1.0000 </r>
       <r>    4.3362    1.0000 </r>
       <r>    4.7637    1.0000 </r>
       <r>    5.0075    1.0000 </r>
       <r>    7.3199    0.0000 </r>
       <r>    7.6755    0.0000 </r>
       <r>    7.6795    0.0000 </r>
       <r>    7.7666    0.0000 </r>
       <r>    7.8052    0.0000 </r>
       <r>    7.8425    0.0000 </r>
       <r>    8.4970    0.0000 </r>
       <r>    8.5242    0.0000 </r>
       <r>   12.3323    0.0000 </r>
       <r>   12.9594    0.0000 </r>
       <r>   13.3852    0.0000 </r>
       <r>   13.4967    0.0000 </r>
       <r>   14.8831    0.0000 </r>
       <r>   15.0965    0.0000 </r>
       <r>   15.1680    0.0000 </r>
       <r>   15.2559    0.0000 </r>
       <r>   16.3414    0.0000 </r>
       <r>   16.7054    0.0000 </r>
       <r>   17.0438    0.0000 </r>
       <r>   17.1312    0.0000 </r>
       <r>   17.1772    0.0000 </r>
       <r>   17.6156    0.0000 </r>
       <r>   17.9806    0.0000 </r>
       <r>   18.3256    0.0000 </r>
       <r>   18.6563    0.0000 </r>
       <r>   19.1406    0.0000 </r>
       <r>   19.4294    0.0000 </r>
       <r>   19.7869    0.0000 </r>
       <r>   20.4972    0.0000 </r>
       <r>   20.8193    0.0000 </r>
       <r>   21.6284    0.0000 </r>
       <r>   21.6354    0.0000 </r>
       <r>   21.8835    0.0000 </r>
       <r>   21.9298    0.0000 </r>
       <r>   24.1177    0.0000 </r>
       <r>   24.2652    0.0000 </r>
       <r>   24.4528    0.0000 </r>
       <r>   25.0056    0.0000 </r>
       <r>   25.8052    0.0000 </r>
      </set>
      <set comment="kpoint 4">
       <r>  -55.6912    1.0000 </r>
       <r>  -55.6912    1.0000 </r>
       <r>  -29.8238    1.0000 </r>
       <r>  -29.8237    1.0000 </r>
       <r>  -29.8050    1.0000 </r>
       <r>  -29.8049    1.0000 </r>
       <r>  -29.6807    1.0000 </r>
       <r>  -29.6807    1.0000 </r>
       <r>   -8.0993    1.0000 </r>
       <r>   -8.0561    1.0000 </r>
       <r>   -7.2963    1.0000 </r>
       <r>   -7.2348    1.0000 </r>
       <r>    0.0906    1.0000 </r>
       <r>    0.3118    1.0000 </r>
       <r>    1.3372    1.0000 </r>
       <r>    1.4253    1.0000 </r>
       <r>    1.5132    1.0000 </r>
       <r>    1.7099    1.0000 </r>
       <r>    2.6977    1.0000 </r>
       <r>    2.7077    1.0000 </r>
       <r>    3.3896    1.0000 </r>
       <r>    3.3996    1.0000 </r>
       <r>    3.6906    1.0000 </r>
       <r>    4.0300    1.0000 </r>
       <r>    4.4210    1.0000 </r>
       <r>    4.4912    1.0000 </r>
       <r>    7.1319    0.0000 </r>
       <r>    7.5010    0.0000 </r>
       <r>    7.5391    0.0000 </r>
       <r>    7.5965    0.0000 </r>
       <r>    7.9296    0.0000 </r>
       <r>    8.2505    0.0000 </r>
       <r>    8.9092    0.0000 </r>
       <r>    8.9570    0.0000 </r>
       <r>   12.5898    0.0000 </r>
       <r>   13.3287    0.0000 </r>
       <r>   13.4859    0.0000 </r>
       <r>   14.1764    0.0000 </r>
       <r>   14.2682    0.0000 </r>
       <r>   14.5221    0.0000 </r>
       <r>   14.8436    0.0000 </r>
       <r>   14.8851    0.0000 </r>
       <r>   16.7560    0.0000 </r>
       <r>   16.9252    0.0000 </r>
       <r>   17.2849    0.0000 </r>
       <r>   17.5454    0.0000 </r>
       <r>   17.9053    0.0000 </r>
       <r>   17.9971    0.0000 </r>
       <r>   18.2271    0.0000 </r>
       <r>   18.4029    0.0000 </r>
       <r>   18.6531    0.0000 </r>
       <r>   18.8816    0.0000 </r>
       <r>   19.1638    0.0000 </r>
       <r>   19.2231    0.0000 </r>
       <r>   19.7226    0.0000 </r>
       <r>   20.0772    0.0000 </r>
       <r>   22.0807    0.0000 </r>
       <r>   22.2470    0.0000 </r>
       <r>   22.4605    0.0000 </r>
       <r>   22.5810    0.0000 </r>
       <r>   24.0654    0.0000 </r>
       <r>   24.1471    0.0000 </r>
       <r>   25.2460    0.0000 </r>
       <r>   25.3901    0.0000 </r>
       <r>   26.1938    0.0000 </r>
      </set>
      <set comment="kpoint 5">
       <r>  -55.6820    1.0000 </r>
       <r>  -55.6819    1.0000 </r>
       <r>  -29.9147    1.0000 </r>
       <r>  -29.9146    1.0000 </r>
       <r>  -29.7865    1.0000 </r>
       <r>  -29.7864    1.0000 </r>
       <r>  -29.7019    1.0000 </r>
       <r>  -29.7019    1.0000 </r>
       <r>   -7.6171    1.0000 </r>
       <r>   -7.5808    1.0000 </r>
       <r>   -7.0956    1.0000 </r>
       <r>   -7.0505    1.0000 </r>
       <r>   -0.0904    1.0000 </r>
       <r>    0.0101    1.0000 </r>
       <r>    0.9524    1.0000 </r>
       <r>    1.0701    1.0000 </r>
       <r>    1.2014    1.0000 </r>
       <r>    1.3778    1.0000 </r>
       <r>    2.3360    1.0000 </r>
       <r>    2.3471    1.0000 </r>
       <r>    3.4367    1.0000 </r>
       <r>    3.6750    1.0000 </r>
       <r>    3.8015    1.0000 </r>
       <r>    3.8199    1.0000 </r>
       <r>    4.1696    1.0000 </r>
       <r>    4.2512    1.0000 </r>
       <r>    7.3302    0.0000 </r>
       <r>    7.3628    0.0000 </r>
       <r>    7.3920    0.0000 </r>
       <r>    7.6953    0.0000 </r>
       <r>    8.3724    0.0000 </r>
       <r>    8.7690    0.0000 </r>
       <r>    9.2056    0.0000 </r>
       <r>    9.2756    0.0000 </r>
       <r>   12.5251    0.0000 </r>
       <r>   12.8328    0.0000 </r>
       <r>   12.9851    0.0000 </r>
       <r>   13.1818    0.0000 </r>
       <r>   13.4486    0.0000 </r>
       <r>   14.2964    0.0000 </r>
       <r>   14.5921    0.0000 </r>
       <r>   15.4317    0.0000 </r>
       <r>   16.1329    0.0000 </r>
       <r>   16.8192    0.0000 </r>
       <r>   17.2079    0.0000 </r>
       <r>   17.6381    0.0000 </r>
       <r>   17.7930    0.0000 </r>
       <r>   17.8217    0.0000 </r>
       <r>   18.4233    0.0000 </r>
       <r>   19.0687    0.0000 </r>
       <r>   19.4698    0.0000 </r>
       <r>   19.7617    0.0000 </r>
       <r>   19.8488    0.0000 </r>
       <r>   20.2259    0.0000 </r>
       <r>   20.4631    0.0000 </r>
       <r>   20.5088    0.0000 </r>
       <r>   22.4547    0.0000 </r>
       <r>   22.4580    0.0000 </r>
       <r>   22.8329    0.0000 </r>
       <r>   22.9207    0.0000 </r>
       <r>   23.5802    0.0000 </r>
       <r>   23.6302    0.0000 </r>
       <r>   24.4253    0.0000 </r>
       <r>   25.2731    0.0000 </r>
       <r>   25.7633    0.0000 </r>
      </set>
      <set comment="kpoint 6">
       <r>  -55.6752    1.0000 </r>
       <r>  -55.6752    1.0000 </r>
       <r>  -29.9804    1.0000 </r>
       <r>  -29.9803    1.0000 </r>
       <r>  -29.7729    1.0000 </r>
       <r>  -29.7728    1.0000 </r>
       <r>  -29.7174    1.0000 </r>
       <r>  -29.7173    1.0000 </r>
       <r>   -7.2143    1.0000 </r>
       <r>   -7.1887    1.0000 </r>
       <r>   -6.9322    1.0000 </r>
       <r>   -6.9048    1.0000 </r>
       <r>   -0.4449    1.0000 </r>
       <r>   -0.3765    1.0000 </r>
       <r>    0.5357    1.0000 </r>
       <r>    0.6071    1.0000 </r>
       <r>    1.1108    1.0000 </r>
       <r>    1.2837    1.0000 </r>
       <r>    2.1012    1.0000 </r>
       <r>    2.1128    1.0000 </r>
       <r>    3.2992    1.0000 </r>
       <r>    3.4294    1.0000 </r>
       <r>    4.0857    1.0000 </r>
       <r>    4.1136    1.0000 </r>
       <r>    4.3359    1.0000 </r>
       <r>    4.4197    1.0000 </r>
       <r>    7.3692    0.0000 </r>
       <r>    7.3850    0.0000 </r>
       <r>    7.6722    0.0000 </r>
       <r>    7.8637    0.0000 </r>
       <r>    8.7177    0.0000 </r>
       <r>    9.1227    0.0000 </r>
       <r>    9.3649    0.0000 </r>
       <r>    9.4520    0.0000 </r>
       <r>   11.6506    0.0000 </r>
       <r>   11.8603    0.0000 </r>
       <r>   12.8762    0.0000 </r>
       <r>   13.0579    0.0000 </r>
       <r>   13.0751    0.0000 </r>
       <r>   14.1478    0.0000 </r>
       <r>   14.1673    0.0000 </r>
       <r>   15.0109    0.0000 </r>
       <r>   15.5507    0.0000 </r>
       <r>   16.4087    0.0000 </r>
       <r>   16.4536    0.0000 </r>
       <r>   16.8517    0.0000 </r>
       <r>   17.8103    0.0000 </r>
       <r>   18.0950    0.0000 </r>
       <r>   19.1866    0.0000 </r>
       <r>   19.7221    0.0000 </r>
       <r>   20.2217    0.0000 </r>
       <r>   20.7671    0.0000 </r>
       <r>   20.8496    0.0000 </r>
       <r>   21.5118    0.0000 </r>
       <r>   21.7560    0.0000 </r>
       <r>   22.1295    0.0000 </r>
       <r>   22.7133    0.0000 </r>
       <r>   22.7627    0.0000 </r>
       <r>   22.7691    0.0000 </r>
       <r>   23.0815    0.0000 </r>
       <r>   23.7675    0.0000 </r>
       <r>   23.7862    0.0000 </r>
       <r>   24.2807    0.0000 </r>
       <r>   24.7279    0.0000 </r>
       <r>   25.4319    0.0000 </r>
      </set>
      <set comment="kpoint 7">
       <r>  -55.6727    1.0000 </r>
       <r>  -55.6726    1.0000 </r>
       <r>  -30.0043    1.0000 </r>
       <r>  -30.0042    1.0000 </r>
       <r>  -29.7679    1.0000 </r>
       <r>  -29.7678    1.0000 </r>
       <r>  -29.7230    1.0000 </r>
       <r>  -29.7230    1.0000 </r>
       <r>   -7.0513    1.0000 </r>
       <r>   -7.0334    1.0000 </r>
       <r>   -6.8669    1.0000 </r>
       <r>   -6.8501    1.0000 </r>
       <r>   -0.6012    1.0000 </r>
       <r>   -0.5368    1.0000 </r>
       <r>    0.3810    1.0000 </r>
       <r>    0.4359    1.0000 </r>
       <r>    1.0416    1.0000 </r>
       <r>    1.2075    1.0000 </r>
       <r>    2.0203    1.0000 </r>
       <r>    2.0321    1.0000 </r>
       <r>    3.2801    1.0000 </r>
       <r>    3.3260    1.0000 </r>
       <r>    4.1818    1.0000 </r>
       <r>    4.2142    1.0000 </r>
       <r>    4.5340    1.0000 </r>
       <r>    4.5498    1.0000 </r>
       <r>    7.4022    0.0000 </r>
       <r>    7.4112    0.0000 </r>
       <r>    7.8657    0.0000 </r>
       <r>    7.9610    0.0000 </r>
       <r>    8.8333    0.0000 </r>
       <r>    9.2313    0.0000 </r>
       <r>    9.4130    0.0000 </r>
       <r>    9.5063    0.0000 </r>
       <r>   11.2060    0.0000 </r>
       <r>   11.2998    0.0000 </r>
       <r>   12.8691    0.0000 </r>
       <r>   13.1878    0.0000 </r>
       <r>   13.3232    0.0000 </r>
       <r>   13.7100    0.0000 </r>
       <r>   14.0265    0.0000 </r>
       <r>   14.6623    0.0000 </r>
       <r>   15.3758    0.0000 </r>
       <r>   16.0926    0.0000 </r>
       <r>   16.2631    0.0000 </r>
       <r>   16.5289    0.0000 </r>
       <r>   17.8293    0.0000 </r>
       <r>   18.2822    0.0000 </r>
       <r>   19.1853    0.0000 </r>
       <r>   19.9965    0.0000 </r>
       <r>   20.4346    0.0000 </r>
       <r>   21.3125    0.0000 </r>
       <r>   21.7045    0.0000 </r>
       <r>   22.0649    0.0000 </r>
       <r>   22.3551    0.0000 </r>
       <r>   22.7022    0.0000 </r>
       <r>   22.9009    0.0000 </r>
       <r>   23.0393    0.0000 </r>
       <r>   23.0496    0.0000 </r>
       <r>   23.2787    0.0000 </r>
       <r>   23.3612    0.0000 </r>
       <r>   24.6496    0.0000 </r>
       <r>   24.6745    0.0000 </r>
       <r>   25.0878    0.0000 </r>
       <r>   25.1800    0.0000 </r>
      </set>
      <set comment="kpoint 8">
       <r>  -55.7025    1.0000 </r>
       <r>  -55.7025    1.0000 </r>
       <r>  -29.8277    1.0000 </r>
       <r>  -29.8276    1.0000 </r>
       <r>  -29.7087    1.0000 </r>
       <r>  -29.7087    1.0000 </r>
       <r>  -29.6557    1.0000 </r>
       <r>  -29.6557    1.0000 </r>
       <r>   -8.6221    1.0000 </r>
       <r>   -8.5749    1.0000 </r>
       <r>   -7.5178    1.0000 </r>
       <r>   -7.4408    1.0000 </r>
       <r>   -0.2467    1.0000 </r>
       <r>    0.0632    1.0000 </r>
       <r>    1.9799    1.0000 </r>
       <r>    1.9804    1.0000 </r>
       <r>    2.2861    1.0000 </r>
       <r>    2.6552    1.0000 </r>
       <r>    2.8740    1.0000 </r>
       <r>    2.8772    1.0000 </r>
       <r>    3.1295    1.0000 </r>
       <r>    3.1458    1.0000 </r>
       <r>    4.0188    1.0000 </r>
       <r>    4.4397    1.0000 </r>
       <r>    4.8217    1.0000 </r>
       <r>    5.1352    1.0000 </r>
       <r>    7.4446    0.0000 </r>
       <r>    7.6117    0.0000 </r>
       <r>    7.7185    0.0000 </r>
       <r>    7.7343    0.0000 </r>
       <r>    7.8314    0.0000 </r>
       <r>    7.8792    0.0000 </r>
       <r>    8.4220    0.0000 </r>
       <r>    8.4557    0.0000 </r>
       <r>   12.2204    0.0000 </r>
       <r>   12.6870    0.0000 </r>
       <r>   13.2302    0.0000 </r>
       <r>   13.3577    0.0000 </r>
       <r>   15.1635    0.0000 </r>
       <r>   15.1639    0.0000 </r>
       <r>   15.1967    0.0000 </r>
       <r>   15.3859    0.0000 </r>
       <r>   16.3167    0.0000 </r>
       <r>   16.5585    0.0000 </r>
       <r>   16.5884    0.0000 </r>
       <r>   16.7490    0.0000 </r>
       <r>   17.3123    0.0000 </r>
       <r>   17.8033    0.0000 </r>
       <r>   18.0599    0.0000 </r>
       <r>   18.0603    0.0000 </r>
       <r>   18.6212    0.0000 </r>
       <r>   19.6871    0.0000 </r>
       <r>   19.9530    0.0000 </r>
       <r>   19.9808    0.0000 </r>
       <r>   20.4726    0.0000 </r>
       <r>   21.1810    0.0000 </r>
       <r>   21.2774    0.0000 </r>
       <r>   21.5031    0.0000 </r>
       <r>   21.7270    0.0000 </r>
       <r>   21.8248    0.0000 </r>
       <r>   23.7900    0.0000 </r>
       <r>   23.7903    0.0000 </r>
       <r>   24.0030    0.0000 </r>
       <r>   25.1780    0.0000 </r>
       <r>   25.5096    0.0000 </r>
      </set>
      <set comment="kpoint 9">
       <r>  -55.6945    1.0000 </r>
       <r>  -55.6945    1.0000 </r>
       <r>  -29.8117    1.0000 </r>
       <r>  -29.8116    1.0000 </r>
       <r>  -29.7857    1.0000 </r>
       <r>  -29.7857    1.0000 </r>
       <r>  -29.6775    1.0000 </r>
       <r>  -29.6774    1.0000 </r>
       <r>   -8.2618    1.0000 </r>
       <r>   -8.2170    1.0000 </r>
       <r>   -7.3643    1.0000 </r>
       <r>   -7.2978    1.0000 </r>
       <r>    0.0545    1.0000 </r>
       <r>    0.3253    1.0000 </r>
       <r>    1.4951    1.0000 </r>
       <r>    1.5283    1.0000 </r>
       <r>    1.8142    1.0000 </r>
       <r>    2.0571    1.0000 </r>
       <r>    2.5764    1.0000 </r>
       <r>    2.6241    1.0000 </r>
       <r>    3.1807    1.0000 </r>
       <r>    3.1868    1.0000 </r>
       <r>    4.0205    1.0000 </r>
       <r>    4.3413    1.0000 </r>
       <r>    4.5777    1.0000 </r>
       <r>    4.6821    1.0000 </r>
       <r>    7.0855    0.0000 </r>
       <r>    7.4576    0.0000 </r>
       <r>    7.5926    0.0000 </r>
       <r>    7.6364    0.0000 </r>
       <r>    7.7320    0.0000 </r>
       <r>    7.8615    0.0000 </r>
       <r>    8.8641    0.0000 </r>
       <r>    8.9498    0.0000 </r>
       <r>   12.7078    0.0000 </r>
       <r>   13.4765    0.0000 </r>
       <r>   13.7267    0.0000 </r>
       <r>   14.1645    0.0000 </r>
       <r>   14.6666    0.0000 </r>
       <r>   14.7547    0.0000 </r>
       <r>   14.9111    0.0000 </r>
       <r>   15.1815    0.0000 </r>
       <r>   16.5927    0.0000 </r>
       <r>   16.6117    0.0000 </r>
       <r>   16.7984    0.0000 </r>
       <r>   17.0170    0.0000 </r>
       <r>   17.5550    0.0000 </r>
       <r>   17.7978    0.0000 </r>
       <r>   17.8944    0.0000 </r>
       <r>   18.0083    0.0000 </r>
       <r>   18.5274    0.0000 </r>
       <r>   18.7422    0.0000 </r>
       <r>   19.5522    0.0000 </r>
       <r>   19.7648    0.0000 </r>
       <r>   19.8253    0.0000 </r>
       <r>   20.7858    0.0000 </r>
       <r>   21.5620    0.0000 </r>
       <r>   21.8247    0.0000 </r>
       <r>   22.4525    0.0000 </r>
       <r>   22.6207    0.0000 </r>
       <r>   24.6066    0.0000 </r>
       <r>   24.9002    0.0000 </r>
       <r>   24.9672    0.0000 </r>
       <r>   25.5983    0.0000 </r>
       <r>   25.7334    0.0000 </r>
      </set>
      <set comment="kpoint 10">
       <r>  -55.6853    1.0000 </r>
       <r>  -55.6853    1.0000 </r>
       <r>  -29.8733    1.0000 </r>
       <r>  -29.8732    1.0000 </r>
       <r>  -29.7932    1.0000 </r>
       <r>  -29.7932    1.0000 </r>
       <r>  -29.7026    1.0000 </r>
       <r>  -29.7026    1.0000 </r>
       <r>   -7.8028    1.0000 </r>
       <r>   -7.7631    1.0000 </r>
       <r>   -7.1702    1.0000 </r>
       <r>   -7.1181    1.0000 </r>
       <r>    0.0927    1.0000 </r>
       <r>    0.2358    1.0000 </r>
       <r>    1.2344    1.0000 </r>
       <r>    1.2650    1.0000 </r>
       <r>    1.3550    1.0000 </r>
       <r>    1.4052    1.0000 </r>
       <r>    2.1985    1.0000 </r>
       <r>    2.2818    1.0000 </r>
       <r>    3.4268    1.0000 </r>
       <r>    3.4341    1.0000 </r>
       <r>    3.7773    1.0000 </r>
       <r>    3.9840    1.0000 </r>
       <r>    4.3120    1.0000 </r>
       <r>    4.3494    1.0000 </r>
       <r>    7.0405    0.0000 </r>
       <r>    7.3433    0.0000 </r>
       <r>    7.5206    0.0000 </r>
       <r>    7.7152    0.0000 </r>
       <r>    7.9860    0.0000 </r>
       <r>    8.2975    0.0000 </r>
       <r>    9.1981    0.0000 </r>
       <r>    9.3436    0.0000 </r>
       <r>   12.8337    0.0000 </r>
       <r>   13.3250    0.0000 </r>
       <r>   13.4127    0.0000 </r>
       <r>   13.8020    0.0000 </r>
       <r>   14.0708    0.0000 </r>
       <r>   14.6123    0.0000 </r>
       <r>   14.7579    0.0000 </r>
       <r>   15.3253    0.0000 </r>
       <r>   16.4992    0.0000 </r>
       <r>   16.7619    0.0000 </r>
       <r>   17.0540    0.0000 </r>
       <r>   17.2324    0.0000 </r>
       <r>   17.4752    0.0000 </r>
       <r>   17.7579    0.0000 </r>
       <r>   17.9068    0.0000 </r>
       <r>   18.1708    0.0000 </r>
       <r>   18.3873    0.0000 </r>
       <r>   19.4003    0.0000 </r>
       <r>   19.8892    0.0000 </r>
       <r>   20.1526    0.0000 </r>
       <r>   20.2268    0.0000 </r>
       <r>   20.6130    0.0000 </r>
       <r>   21.8165    0.0000 </r>
       <r>   22.3773    0.0000 </r>
       <r>   22.8976    0.0000 </r>
       <r>   23.5714    0.0000 </r>
       <r>   23.7339    0.0000 </r>
       <r>   24.0094    0.0000 </r>
       <r>   25.0471    0.0000 </r>
       <r>   25.0530    0.0000 </r>
       <r>   25.8491    0.0000 </r>
      </set>
      <set comment="kpoint 11">
       <r>  -55.6773    1.0000 </r>
       <r>  -55.6773    1.0000 </r>
       <r>  -29.9481    1.0000 </r>
       <r>  -29.9481    1.0000 </r>
       <r>  -29.7772    1.0000 </r>
       <r>  -29.7772    1.0000 </r>
       <r>  -29.7244    1.0000 </r>
       <r>  -29.7243    1.0000 </r>
       <r>   -7.3522    1.0000 </r>
       <r>   -7.3217    1.0000 </r>
       <r>   -6.9828    1.0000 </r>
       <r>   -6.9478    1.0000 </r>
       <r>   -0.2115    1.0000 </r>
       <r>   -0.1353    1.0000 </r>
       <r>    0.6825    1.0000 </r>
       <r>    0.7438    1.0000 </r>
       <r>    1.2181    1.0000 </r>
       <r>    1.3877    1.0000 </r>
       <r>    2.0395    1.0000 </r>
       <r>    2.1075    1.0000 </r>
       <r>    3.4877    1.0000 </r>
       <r>    3.5399    1.0000 </r>
       <r>    3.5655    1.0000 </r>
       <r>    3.6129    1.0000 </r>
       <r>    4.4126    1.0000 </r>
       <r>    4.4490    1.0000 </r>
       <r>    7.2368    0.0000 </r>
       <r>    7.4131    0.0000 </r>
       <r>    7.6424    0.0000 </r>
       <r>    7.7815    0.0000 </r>
       <r>    8.4503    0.0000 </r>
       <r>    8.7742    0.0000 </r>
       <r>    9.3125    0.0000 </r>
       <r>    9.5178    0.0000 </r>
       <r>   12.2779    0.0000 </r>
       <r>   12.4507    0.0000 </r>
       <r>   13.1431    0.0000 </r>
       <r>   13.2588    0.0000 </r>
       <r>   13.5680    0.0000 </r>
       <r>   14.4633    0.0000 </r>
       <r>   14.5556    0.0000 </r>
       <r>   15.3694    0.0000 </r>
       <r>   15.7688    0.0000 </r>
       <r>   16.1207    0.0000 </r>
       <r>   16.4675    0.0000 </r>
       <r>   16.8193    0.0000 </r>
       <r>   17.9160    0.0000 </r>
       <r>   18.3980    0.0000 </r>
       <r>   18.6684    0.0000 </r>
       <r>   18.7653    0.0000 </r>
       <r>   19.2919    0.0000 </r>
       <r>   19.9300    0.0000 </r>
       <r>   20.4295    0.0000 </r>
       <r>   20.9884    0.0000 </r>
       <r>   21.1952    0.0000 </r>
       <r>   21.5761    0.0000 </r>
       <r>   21.8108    0.0000 </r>
       <r>   22.5771    0.0000 </r>
       <r>   23.2918    0.0000 </r>
       <r>   23.6703    0.0000 </r>
       <r>   23.9210    0.0000 </r>
       <r>   24.3528    0.0000 </r>
       <r>   24.4455    0.0000 </r>
       <r>   24.6597    0.0000 </r>
       <r>   26.1098    0.0000 </r>
      </set>
      <set comment="kpoint 12">
       <r>  -55.6727    1.0000 </r>
       <r>  -55.6726    1.0000 </r>
       <r>  -29.9910    1.0000 </r>
       <r>  -29.9909    1.0000 </r>
       <r>  -29.7679    1.0000 </r>
       <r>  -29.7679    1.0000 </r>
       <r>  -29.7369    1.0000 </r>
       <r>  -29.7368    1.0000 </r>
       <r>   -7.0590    1.0000 </r>
       <r>   -7.0397    1.0000 </r>
       <r>   -6.8628    1.0000 </r>
       <r>   -6.8436    1.0000 </r>
       <r>   -0.4632    1.0000 </r>
       <r>   -0.3994    1.0000 </r>
       <r>    0.3560    1.0000 </r>
       <r>    0.3915    1.0000 </r>
       <r>    1.1012    1.0000 </r>
       <r>    1.2631    1.0000 </r>
       <r>    1.9985    1.0000 </r>
       <r>    2.0384    1.0000 </r>
       <r>    3.3089    1.0000 </r>
       <r>    3.3859    1.0000 </r>
       <r>    3.6626    1.0000 </r>
       <r>    3.6957    1.0000 </r>
       <r>    4.6503    1.0000 </r>
       <r>    4.6878    1.0000 </r>
       <r>    7.3911    0.0000 </r>
       <r>    7.4422    0.0000 </r>
       <r>    7.8524    0.0000 </r>
       <r>    7.9738    0.0000 </r>
       <r>    8.8491    0.0000 </r>
       <r>    9.1092    0.0000 </r>
       <r>    9.2302    0.0000 </r>
       <r>    9.4512    0.0000 </r>
       <r>   11.4616    0.0000 </r>
       <r>   11.5631    0.0000 </r>
       <r>   13.3553    0.0000 </r>
       <r>   13.4564    0.0000 </r>
       <r>   13.5835    0.0000 </r>
       <r>   14.0414    0.0000 </r>
       <r>   14.2871    0.0000 </r>
       <r>   14.8752    0.0000 </r>
       <r>   15.3644    0.0000 </r>
       <r>   15.7398    0.0000 </r>
       <r>   15.8830    0.0000 </r>
       <r>   16.5359    0.0000 </r>
       <r>   17.9557    0.0000 </r>
       <r>   18.6890    0.0000 </r>
       <r>   19.0633    0.0000 </r>
       <r>   19.1211    0.0000 </r>
       <r>   20.1640    0.0000 </r>
       <r>   21.0005    0.0000 </r>
       <r>   21.1951    0.0000 </r>
       <r>   21.3973    0.0000 </r>
       <r>   21.7644    0.0000 </r>
       <r>   21.9771    0.0000 </r>
       <r>   22.2822    0.0000 </r>
       <r>   23.3342    0.0000 </r>
       <r>   23.3359    0.0000 </r>
       <r>   24.0164    0.0000 </r>
       <r>   24.0388    0.0000 </r>
       <r>   24.1411    0.0000 </r>
       <r>   24.4883    0.0000 </r>
       <r>   25.3943    0.0000 </r>
       <r>   25.7352    0.0000 </r>
      </set>
      <set comment="kpoint 13">
       <r>  -55.6866    1.0000 </r>
       <r>  -55.6865    1.0000 </r>
       <r>  -29.8521    1.0000 </r>
       <r>  -29.8521    1.0000 </r>
       <r>  -29.7957    1.0000 </r>
       <r>  -29.7957    1.0000 </r>
       <r>  -29.7090    1.0000 </r>
       <r>  -29.7089    1.0000 </r>
       <r>   -7.8690    1.0000 </r>
       <r>   -7.8283    1.0000 </r>
       <r>   -7.1960    1.0000 </r>
       <r>   -7.1414    1.0000 </r>
       <r>    0.1804    1.0000 </r>
       <r>    0.3524    1.0000 </r>
       <r>    1.3255    1.0000 </r>
       <r>    1.4188    1.0000 </r>
       <r>    1.4660    1.0000 </r>
       <r>    1.5592    1.0000 </r>
       <r>    1.9189    1.0000 </r>
       <r>    2.1001    1.0000 </r>
       <r>    3.2131    1.0000 </r>
       <r>    3.2158    1.0000 </r>
       <r>    4.0488    1.0000 </r>
       <r>    4.2218    1.0000 </r>
       <r>    4.3830    1.0000 </r>
       <r>    4.3973    1.0000 </r>
       <r>    6.9107    0.0000 </r>
       <r>    7.2772    0.0000 </r>
       <r>    7.5736    0.0000 </r>
       <r>    7.7087    0.0000 </r>
       <r>    7.7620    0.0000 </r>
       <r>    7.9895    0.0000 </r>
       <r>    9.2459    0.0000 </r>
       <r>    9.4292    0.0000 </r>
       <r>   13.0680    0.0000 </r>
       <r>   13.6024    0.0000 </r>
       <r>   13.9696    0.0000 </r>
       <r>   14.0962    0.0000 </r>
       <r>   14.5787    0.0000 </r>
       <r>   14.9615    0.0000 </r>
       <r>   15.0881    0.0000 </r>
       <r>   15.1541    0.0000 </r>
       <r>   16.2293    0.0000 </r>
       <r>   16.5266    0.0000 </r>
       <r>   16.6161    0.0000 </r>
       <r>   16.8989    0.0000 </r>
       <r>   17.2886    0.0000 </r>
       <r>   17.4620    0.0000 </r>
       <r>   17.4761    0.0000 </r>
       <r>   17.6955    0.0000 </r>
       <r>   17.8188    0.0000 </r>
       <r>   19.5398    0.0000 </r>
       <r>   20.0664    0.0000 </r>
       <r>   20.2527    0.0000 </r>
       <r>   20.2530    0.0000 </r>
       <r>   20.8318    0.0000 </r>
       <r>   21.3632    0.0000 </r>
       <r>   22.3659    0.0000 </r>
       <r>   23.6089    0.0000 </r>
       <r>   23.6714    0.0000 </r>
       <r>   23.7511    0.0000 </r>
       <r>   24.8645    0.0000 </r>
       <r>   24.9049    0.0000 </r>
       <r>   25.0021    0.0000 </r>
       <r>   25.6690    0.0000 </r>
      </set>
      <set comment="kpoint 14">
       <r>  -55.6786    1.0000 </r>
       <r>  -55.6785    1.0000 </r>
       <r>  -29.9145    1.0000 </r>
       <r>  -29.9144    1.0000 </r>
       <r>  -29.7797    1.0000 </r>
       <r>  -29.7797    1.0000 </r>
       <r>  -29.7438    1.0000 </r>
       <r>  -29.7438    1.0000 </r>
       <r>   -7.4324    1.0000 </r>
       <r>   -7.3993    1.0000 </r>
       <r>   -7.0084    1.0000 </r>
       <r>   -6.9689    1.0000 </r>
       <r>    0.0390    1.0000 </r>
       <r>    0.1269    1.0000 </r>
       <r>    0.8166    1.0000 </r>
       <r>    0.8474    1.0000 </r>
       <r>    1.3983    1.0000 </r>
       <r>    1.5270    1.0000 </r>
       <r>    1.8054    1.0000 </r>
       <r>    1.9940    1.0000 </r>
       <r>    2.9384    1.0000 </r>
       <r>    2.9615    1.0000 </r>
       <r>    3.8031    1.0000 </r>
       <r>    3.8639    1.0000 </r>
       <r>    4.4292    1.0000 </r>
       <r>    4.4325    1.0000 </r>
       <r>    7.0524    0.0000 </r>
       <r>    7.4436    0.0000 </r>
       <r>    7.6987    0.0000 </r>
       <r>    7.7525    0.0000 </r>
       <r>    8.0167    0.0000 </r>
       <r>    8.3182    0.0000 </r>
       <r>    9.4303    0.0000 </r>
       <r>    9.6983    0.0000 </r>
       <r>   12.9868    0.0000 </r>
       <r>   13.0934    0.0000 </r>
       <r>   13.5822    0.0000 </r>
       <r>   13.6288    0.0000 </r>
       <r>   14.3460    0.0000 </r>
       <r>   14.8153    0.0000 </r>
       <r>   15.0340    0.0000 </r>
       <r>   15.4305    0.0000 </r>
       <r>   15.8103    0.0000 </r>
       <r>   16.2946    0.0000 </r>
       <r>   16.4208    0.0000 </r>
       <r>   17.0332    0.0000 </r>
       <r>   17.2494    0.0000 </r>
       <r>   17.5602    0.0000 </r>
       <r>   17.8494    0.0000 </r>
       <r>   18.0714    0.0000 </r>
       <r>   18.1445    0.0000 </r>
       <r>   19.4520    0.0000 </r>
       <r>   19.9397    0.0000 </r>
       <r>   20.5034    0.0000 </r>
       <r>   21.0936    0.0000 </r>
       <r>   21.4496    0.0000 </r>
       <r>   21.5556    0.0000 </r>
       <r>   22.9111    0.0000 </r>
       <r>   23.6513    0.0000 </r>
       <r>   24.0927    0.0000 </r>
       <r>   24.2715    0.0000 </r>
       <r>   24.9448    0.0000 </r>
       <r>   25.0152    0.0000 </r>
       <r>   25.1393    0.0000 </r>
       <r>   25.7555    0.0000 </r>
      </set>
      <set comment="kpoint 15">
       <r>  -55.6727    1.0000 </r>
       <r>  -55.6727    1.0000 </r>
       <r>  -29.9586    1.0000 </r>
       <r>  -29.9585    1.0000 </r>
       <r>  -29.7704    1.0000 </r>
       <r>  -29.7704    1.0000 </r>
       <r>  -29.7680    1.0000 </r>
       <r>  -29.7679    1.0000 </r>
       <r>   -7.0741    1.0000 </r>
       <r>   -7.0521    1.0000 </r>
       <r>   -6.8543    1.0000 </r>
       <r>   -6.8309    1.0000 </r>
       <r>   -0.1400    1.0000 </r>
       <r>   -0.0780    1.0000 </r>
       <r>    0.3037    1.0000 </r>
       <r>    0.3175    1.0000 </r>
       <r>    1.2927    1.0000 </r>
       <r>    1.4283    1.0000 </r>
       <r>    1.9104    1.0000 </r>
       <r>    2.0511    1.0000 </r>
       <r>    2.7990    1.0000 </r>
       <r>    2.8510    1.0000 </r>
       <r>    3.4336    1.0000 </r>
       <r>    3.5044    1.0000 </r>
       <r>    4.6618    1.0000 </r>
       <r>    4.6941    1.0000 </r>
       <r>    7.2831    0.0000 </r>
       <r>    7.4530    0.0000 </r>
       <r>    7.8978    0.0000 </r>
       <r>    8.0144    0.0000 </r>
       <r>    8.3679    0.0000 </r>
       <r>    8.6417    0.0000 </r>
       <r>    9.4220    0.0000 </r>
       <r>    9.7467    0.0000 </r>
       <r>   12.0726    0.0000 </r>
       <r>   12.2033    0.0000 </r>
       <r>   13.6605    0.0000 </r>
       <r>   13.7432    0.0000 </r>
       <r>   14.3786    0.0000 </r>
       <r>   14.6940    0.0000 </r>
       <r>   14.8292    0.0000 </r>
       <r>   14.9322    0.0000 </r>
       <r>   15.5899    0.0000 </r>
       <r>   15.5912    0.0000 </r>
       <r>   16.0121    0.0000 </r>
       <r>   16.7147    0.0000 </r>
       <r>   17.9353    0.0000 </r>
       <r>   18.3404    0.0000 </r>
       <r>   18.4182    0.0000 </r>
       <r>   18.7953    0.0000 </r>
       <r>   18.8447    0.0000 </r>
       <r>   19.4818    0.0000 </r>
       <r>   20.2270    0.0000 </r>
       <r>   20.7654    0.0000 </r>
       <r>   21.2119    0.0000 </r>
       <r>   21.3258    0.0000 </r>
       <r>   22.0684    0.0000 </r>
       <r>   23.1924    0.0000 </r>
       <r>   23.8940    0.0000 </r>
       <r>   24.2471    0.0000 </r>
       <r>   24.3563    0.0000 </r>
       <r>   24.8467    0.0000 </r>
       <r>   24.9559    0.0000 </r>
       <r>   25.5234    0.0000 </r>
       <r>   26.4697    0.0000 </r>
      </set>
      <set comment="kpoint 16">
       <r>  -55.6705    1.0000 </r>
       <r>  -55.6705    1.0000 </r>
       <r>  -29.9744    1.0000 </r>
       <r>  -29.9744    1.0000 </r>
       <r>  -29.7803    1.0000 </r>
       <r>  -29.7803    1.0000 </r>
       <r>  -29.7636    1.0000 </r>
       <r>  -29.7636    1.0000 </r>
       <r>   -6.9312    1.0000 </r>
       <r>   -6.9172    1.0000 </r>
       <r>   -6.7921    1.0000 </r>
       <r>   -6.7788    1.0000 </r>
       <r>   -0.2071    1.0000 </r>
       <r>   -0.1503    1.0000 </r>
       <r>    0.1179    1.0000 </r>
       <r>    0.1244    1.0000 </r>
       <r>    1.1719    1.0000 </r>
       <r>    1.3116    1.0000 </r>
       <r>    1.9991    1.0000 </r>
       <r>    2.1029    1.0000 </r>
       <r>    2.8025    1.0000 </r>
       <r>    2.8529    1.0000 </r>
       <r>    3.2445    1.0000 </r>
       <r>    3.3452    1.0000 </r>
       <r>    4.8309    1.0000 </r>
       <r>    4.8771    1.0000 </r>
       <r>    7.2720    0.0000 </r>
       <r>    7.3145    0.0000 </r>
       <r>    8.1631    0.0000 </r>
       <r>    8.2153    0.0000 </r>
       <r>    8.5363    0.0000 </r>
       <r>    8.7749    0.0000 </r>
       <r>    9.3733    0.0000 </r>
       <r>    9.7170    0.0000 </r>
       <r>   11.6492    0.0000 </r>
       <r>   11.7125    0.0000 </r>
       <r>   13.8682    0.0000 </r>
       <r>   13.9953    0.0000 </r>
       <r>   14.5221    0.0000 </r>
       <r>   14.6272    0.0000 </r>
       <r>   14.6545    0.0000 </r>
       <r>   14.7377    0.0000 </r>
       <r>   15.2432    0.0000 </r>
       <r>   15.2885    0.0000 </r>
       <r>   15.7842    0.0000 </r>
       <r>   16.6850    0.0000 </r>
       <r>   17.8952    0.0000 </r>
       <r>   18.3207    0.0000 </r>
       <r>   18.5615    0.0000 </r>
       <r>   19.2178    0.0000 </r>
       <r>   19.7342    0.0000 </r>
       <r>   19.7423    0.0000 </r>
       <r>   20.6888    0.0000 </r>
       <r>   20.7374    0.0000 </r>
       <r>   20.9348    0.0000 </r>
       <r>   21.6764    0.0000 </r>
       <r>   22.2097    0.0000 </r>
       <r>   23.3844    0.0000 </r>
       <r>   23.7090    0.0000 </r>
       <r>   23.9027    0.0000 </r>
       <r>   24.1694    0.0000 </r>
       <r>   24.6308    0.0000 </r>
       <r>   25.1180    0.0000 </r>
       <r>   25.3738    0.0000 </r>
       <r>   26.0359    0.0000 </r>
      </set>
      <set comment="kpoint 17">
       <r>  -55.6727    1.0000 </r>
       <r>  -55.6727    1.0000 </r>
       <r>  -29.9370    1.0000 </r>
       <r>  -29.9369    1.0000 </r>
       <r>  -29.7926    1.0000 </r>
       <r>  -29.7926    1.0000 </r>
       <r>  -29.7680    1.0000 </r>
       <r>  -29.7679    1.0000 </r>
       <r>   -7.0814    1.0000 </r>
       <r>   -7.0583    1.0000 </r>
       <r>   -6.8499    1.0000 </r>
       <r>   -6.8247    1.0000 </r>
       <r>    0.0546    1.0000 </r>
       <r>    0.1163    1.0000 </r>
       <r>    0.2682    1.0000 </r>
       <r>    0.2953    1.0000 </r>
       <r>    1.5606    1.0000 </r>
       <r>    1.5970    1.0000 </r>
       <r>    1.8596    1.0000 </r>
       <r>    2.0477    1.0000 </r>
       <r>    2.2521    1.0000 </r>
       <r>    2.3077    1.0000 </r>
       <r>    3.5201    1.0000 </r>
       <r>    3.5695    1.0000 </r>
       <r>    4.6456    1.0000 </r>
       <r>    4.6665    1.0000 </r>
       <r>    7.2172    0.0000 </r>
       <r>    7.4374    0.0000 </r>
       <r>    7.9285    0.0000 </r>
       <r>    8.0447    0.0000 </r>
       <r>    8.1121    0.0000 </r>
       <r>    8.4134    0.0000 </r>
       <r>    9.5895    0.0000 </r>
       <r>    9.8942    0.0000 </r>
       <r>   12.6297    0.0000 </r>
       <r>   12.7010    0.0000 </r>
       <r>   13.1804    0.0000 </r>
       <r>   14.0402    0.0000 </r>
       <r>   14.1685    0.0000 </r>
       <r>   14.5497    0.0000 </r>
       <r>   15.1870    0.0000 </r>
       <r>   15.2609    0.0000 </r>
       <r>   16.3968    0.0000 </r>
       <r>   16.5377    0.0000 </r>
       <r>   16.5918    0.0000 </r>
       <r>   16.6949    0.0000 </r>
       <r>   17.6061    0.0000 </r>
       <r>   17.7797    0.0000 </r>
       <r>   17.8388    0.0000 </r>
       <r>   17.9330    0.0000 </r>
       <r>   18.0608    0.0000 </r>
       <r>   19.0986    0.0000 </r>
       <r>   20.0223    0.0000 </r>
       <r>   20.3125    0.0000 </r>
       <r>   20.8202    0.0000 </r>
       <r>   21.2349    0.0000 </r>
       <r>   21.6617    0.0000 </r>
       <r>   23.8750    0.0000 </r>
       <r>   24.0048    0.0000 </r>
       <r>   24.3947    0.0000 </r>
       <r>   24.4355    0.0000 </r>
       <r>   24.9016    0.0000 </r>
       <r>   25.1247    0.0000 </r>
       <r>   26.0477    0.0000 </r>
       <r>   26.3055    0.0000 </r>
      </set>
      <set comment="kpoint 18">
       <r>  -55.6693    1.0000 </r>
       <r>  -55.6693    1.0000 </r>
       <r>  -29.9415    1.0000 </r>
       <r>  -29.9415    1.0000 </r>
       <r>  -29.8292    1.0000 </r>
       <r>  -29.8292    1.0000 </r>
       <r>  -29.7612    1.0000 </r>
       <r>  -29.7612    1.0000 </r>
       <r>   -6.8617    1.0000 </r>
       <r>   -6.8503    1.0000 </r>
       <r>   -6.7467    1.0000 </r>
       <r>   -6.7352    1.0000 </r>
       <r>   -0.0715    1.0000 </r>
       <r>   -0.0447    1.0000 </r>
       <r>    0.1919    1.0000 </r>
       <r>    0.2362    1.0000 </r>
       <r>    1.3332    1.0000 </r>
       <r>    1.4135    1.0000 </r>
       <r>    1.9418    1.0000 </r>
       <r>    2.0110    1.0000 </r>
       <r>    2.0790    1.0000 </r>
       <r>    2.2142    1.0000 </r>
       <r>    3.1711    1.0000 </r>
       <r>    3.2638    1.0000 </r>
       <r>    4.9448    1.0000 </r>
       <r>    4.9856    1.0000 </r>
       <r>    7.0544    0.0000 </r>
       <r>    7.0924    0.0000 </r>
       <r>    8.1590    0.0000 </r>
       <r>    8.3767    0.0000 </r>
       <r>    8.4716    0.0000 </r>
       <r>    8.4853    0.0000 </r>
       <r>    9.7361    0.0000 </r>
       <r>    9.9757    0.0000 </r>
       <r>   12.0146    0.0000 </r>
       <r>   12.2703    0.0000 </r>
       <r>   13.0699    0.0000 </r>
       <r>   13.6575    0.0000 </r>
       <r>   14.3681    0.0000 </r>
       <r>   14.8351    0.0000 </r>
       <r>   15.4745    0.0000 </r>
       <r>   15.6485    0.0000 </r>
       <r>   16.0049    0.0000 </r>
       <r>   16.1324    0.0000 </r>
       <r>   16.6926    0.0000 </r>
       <r>   17.0072    0.0000 </r>
       <r>   17.1768    0.0000 </r>
       <r>   18.0289    0.0000 </r>
       <r>   18.2353    0.0000 </r>
       <r>   18.5111    0.0000 </r>
       <r>   18.7165    0.0000 </r>
       <r>   19.1285    0.0000 </r>
       <r>   19.9985    0.0000 </r>
       <r>   20.3373    0.0000 </r>
       <r>   20.5445    0.0000 </r>
       <r>   20.8230    0.0000 </r>
       <r>   21.7172    0.0000 </r>
       <r>   23.4385    0.0000 </r>
       <r>   23.7523    0.0000 </r>
       <r>   23.9592    0.0000 </r>
       <r>   24.1153    0.0000 </r>
       <r>   24.2679    0.0000 </r>
       <r>   25.1364    0.0000 </r>
       <r>   25.3306    0.0000 </r>
       <r>   26.5137    0.0000 </r>
      </set>
      <set comment="kpoint 19">
       <r>  -55.6680    1.0000 </r>
       <r>  -55.6680    1.0000 </r>
       <r>  -29.9141    1.0000 </r>
       <r>  -29.9141    1.0000 </r>
       <r>  -29.8719    1.0000 </r>
       <r>  -29.8719    1.0000 </r>
       <r>  -29.7587    1.0000 </r>
       <r>  -29.7587    1.0000 </r>
       <r>   -6.7790    1.0000 </r>
       <r>   -6.7790    1.0000 </r>
       <r>   -6.7008    1.0000 </r>
       <r>   -6.7008    1.0000 </r>
       <r>   -0.2185    1.0000 </r>
       <r>   -0.1874    1.0000 </r>
       <r>    0.6061    1.0000 </r>
       <r>    0.6061    1.0000 </r>
       <r>    1.0985    1.0000 </r>
       <r>    1.1525    1.0000 </r>
       <r>    1.6334    1.0000 </r>
       <r>    1.6334    1.0000 </r>
       <r>    2.2973    1.0000 </r>
       <r>    2.2974    1.0000 </r>
       <r>    3.0378    1.0000 </r>
       <r>    3.0378    1.0000 </r>
       <r>    5.1361    1.0000 </r>
       <r>    5.1768    1.0000 </r>
       <r>    6.8343    0.0000 </r>
       <r>    6.8343    0.0000 </r>
       <r>    8.0544    0.0000 </r>
       <r>    8.3933    0.0000 </r>
       <r>    8.6798    0.0000 </r>
       <r>    8.6798    0.0000 </r>
       <r>    9.9969    0.0000 </r>
       <r>    9.9970    0.0000 </r>
       <r>   11.9592    0.0000 </r>
       <r>   12.7260    0.0000 </r>
       <r>   12.7260    0.0000 </r>
       <r>   12.8429    0.0000 </r>
       <r>   14.8341    0.0000 </r>
       <r>   14.8341    0.0000 </r>
       <r>   15.9530    0.0000 </r>
       <r>   16.0103    0.0000 </r>
       <r>   16.0103    0.0000 </r>
       <r>   16.7003    0.0000 </r>
       <r>   16.7379    0.0000 </r>
       <r>   16.9006    0.0000 </r>
       <r>   18.0563    0.0000 </r>
       <r>   18.0563    0.0000 </r>
       <r>   18.0620    0.0000 </r>
       <r>   18.0620    0.0000 </r>
       <r>   18.2237    0.0000 </r>
       <r>   19.3749    0.0000 </r>
       <r>   19.6426    0.0000 </r>
       <r>   19.6426    0.0000 </r>
       <r>   20.1527    0.0000 </r>
       <r>   21.3623    0.0000 </r>
       <r>   21.3623    0.0000 </r>
       <r>   22.9403    0.0000 </r>
       <r>   23.6135    0.0000 </r>
       <r>   23.6135    0.0000 </r>
       <r>   23.6695    0.0000 </r>
       <r>   23.6695    0.0000 </r>
       <r>   24.9197    0.0000 </r>
       <r>   25.7657    0.0000 </r>
       <r>   26.7561    0.0000 </r>
      </set>
     </set>
    </set>
   </array>
  </eigenvalues>
  <separator name="orbital magnetization" >
   <v name="MAGDIPOLOUT">      0.00000000      0.00000000      0.00000000</v>
  </separator>
  <dielectricfunction>
   <imag>
    <array>
     <dimension dim="1">gridpoints</dimension>
     <field>energy</field>
     <field>xx</field>
     <field>yy</field>
     <field>zz</field>
     <field>xy</field>
     <field>yz</field>
     <field>zx</field>
     <set>
      <r>     0.0000     0.0000     0.0000     0.0000     0.0000     0.0000     0.0000 </r>
      <r>     0.0330     0.0089     0.0089     0.0016    -0.0000    -0.0000     0.0000 </r>
      <r>     0.0660     0.0178     0.0178     0.0031    -0.0000    -0.0000     0.0000 </r>
      <r>     0.0990     0.0267     0.0267     0.0047    -0.0000    -0.0000     0.0000 </r>
      <r>     0.1320     0.0357     0.0357     0.0062    -0.0000    -0.0000     0.0000 </r>
      <r>     0.1650     0.0448     0.0448     0.0078    -0.0000    -0.0000     0.0000 </r>
      <r>     0.1980     0.0540     0.0540     0.0094    -0.0000    -0.0000     0.0000 </r>
      <r>     0.2310     0.0633     0.0633     0.0109    -0.0000    -0.0000     0.0000 </r>
      <r>     0.2640     0.0727     0.0727     0.0125    -0.0000    -0.0000     0.0000 </r>
      <r>     0.2970     0.0823     0.0823     0.0141    -0.0000    -0.0000     0.0000 </r>
      <r>     0.3300     0.0921     0.0921     0.0157    -0.0000    -0.0000     0.0000 </r>
      <r>     0.3630     0.1020     0.1020     0.0173    -0.0000    -0.0000     0.0000 </r>
      <r>     0.3960     0.1123     0.1123     0.0190    -0.0000    -0.0000     0.0000 </r>
      <r>     0.4290     0.1228     0.1228     0.0206    -0.0000    -0.0000     0.0000 </r>
      <r>     0.4620     0.1336     0.1336     0.0223    -0.0000    -0.0000     0.0000 </r>
      <r>     0.4950     0.1447     0.1447     0.0239    -0.0000    -0.0000     0.0000 </r>
      <r>     0.5280     0.1562     0.1562     0.0256    -0.0000    -0.0000     0.0000 </r>
      <r>     0.5610     0.1681     0.1681     0.0273    -0.0000    -0.0000     0.0000 </r>
      <r>     0.5940     0.1805     0.1805     0.0291    -0.0000    -0.0000     0.0000 </r>
      <r>     0.6269     0.1934     0.1934     0.0308    -0.0000    -0.0000     0.0000 </r>
      <r>     0.6599     0.2068     0.2068     0.0326    -0.0000    -0.0000     0.0000 </r>
      <r>     0.6929     0.2209     0.2209     0.0344    -0.0000    -0.0000     0.0000 </r>
      <r>     0.7259     0.2357     0.2357     0.0363    -0.0000    -0.0000     0.0000 </r>
      <r>     0.7589     0.2512     0.2512     0.0382    -0.0000    -0.0000     0.0000 </r>
      <r>     0.7919     0.2677     0.2677     0.0401    -0.0000    -0.0000     0.0000 </r>
      <r>     0.8249     0.2851     0.2851     0.0420    -0.0000    -0.0000     0.0000 </r>
      <r>     0.8579     0.3035     0.3035     0.0440    -0.0000    -0.0000     0.0000 </r>
      <r>     0.8909     0.3233     0.3233     0.0460    -0.0000    -0.0000     0.0000 </r>
      <r>     0.9239     0.3444     0.3444     0.0481    -0.0000    -0.0000     0.0000 </r>
      <r>     0.9569     0.3671     0.3671     0.0502    -0.0000    -0.0000     0.0000 </r>
      <r>     0.9899     0.3917     0.3917     0.0523    -0.0000    -0.0000     0.0000 </r>
      <r>     1.0229     0.4184     0.4184     0.0545    -0.0000    -0.0000     0.0000 </r>
      <r>     1.0559     0.4475     0.4475     0.0568    -0.0000    -0.0000     0.0000 </r>
      <r>     1.0889     0.4796     0.4796     0.0591    -0.0000    -0.0000     0.0000 </r>
      <r>     1.1219     0.5151     0.5151     0.0615    -0.0000    -0.0000     0.0000 </r>
      <r>     1.1549     0.5547     0.5547     0.0639    -0.0000    -0.0000     0.0000 </r>
      <r>     1.1879     0.5994     0.5994     0.0664    -0.0000    -0.0000     0.0000 </r>
      <r>     1.2209     0.6502     0.6502     0.0690    -0.0000    -0.0000     0.0000 </r>
      <r>     1.2539     0.7088     0.7088     0.0717    -0.0000    -0.0000     0.0000 </r>
      <r>     1.2869     0.7772     0.7772     0.0745    -0.0000    -0.0000     0.0000 </r>
      <r>     1.3199     0.8586     0.8586     0.0773    -0.0000    -0.0000     0.0000 </r>
      <r>     1.3529     0.9572     0.9572     0.0803    -0.0000    -0.0000     0.0000 </r>
      <r>     1.3859     1.0795     1.0795     0.0833    -0.0000    -0.0000     0.0000 </r>
      <r>     1.4189     1.2352     1.2352     0.0865     0.0000    -0.0000     0.0000 </r>
      <r>     1.4519     1.4392     1.4392     0.0898     0.0000    -0.0000     0.0000 </r>
      <r>     1.4849     1.7143     1.7143     0.0933     0.0000    -0.0000     0.0000 </r>
      <r>     1.5179     2.0921     2.0921     0.0968     0.0000    -0.0000     0.0000 </r>
      <r>     1.5509     2.6063     2.6063     0.1006     0.0000    -0.0000     0.0000 </r>
      <r>     1.5839     3.2630     3.2630     0.1045     0.0000    -0.0000     0.0000 </r>
      <r>     1.6169     3.9854     3.9854     0.1086     0.0000    -0.0000     0.0000 </r>
      <r>     1.6499     4.5866     4.5866     0.1129     0.0000    -0.0000     0.0000 </r>
      <r>     1.6829     4.8564     4.8564     0.1175     0.0000    -0.0000     0.0000 </r>
      <r>     1.7159     4.7300     4.7300     0.1222     0.0000    -0.0000     0.0000 </r>
      <r>     1.7489     4.3525     4.3525     0.1273     0.0000    -0.0000     0.0000 </r>
      <r>     1.7819     3.9591     3.9591     0.1327     0.0000    -0.0000     0.0000 </r>
      <r>     1.8149     3.7218     3.7218     0.1384     0.0000    -0.0000     0.0000 </r>
      <r>     1.8478     3.7121     3.7121     0.1444     0.0000    -0.0000     0.0000 </r>
      <r>     1.8808     3.9526     3.9526     0.1510     0.0000    -0.0000     0.0000 </r>
      <r>     1.9138     4.4722     4.4722     0.1579     0.0000    -0.0000    -0.0000 </r>
      <r>     1.9468     5.3275     5.3275     0.1655     0.0000    -0.0000    -0.0000 </r>
      <r>     1.9798     6.5815     6.5815     0.1737     0.0000    -0.0000    -0.0000 </r>
      <r>     2.0128     8.2196     8.2196     0.1825     0.0000    -0.0000    -0.0000 </r>
      <r>     2.0458    10.0178    10.0178     0.1923     0.0000    -0.0000    -0.0000 </r>
      <r>     2.0788    11.4994    11.4994     0.2030     0.0000    -0.0000    -0.0000 </r>
      <r>     2.1118    12.1518    12.1518     0.2149     0.0000    -0.0000    -0.0000 </r>
      <r>     2.1448    11.8074    11.8074     0.2282     0.0000    -0.0000    -0.0000 </r>
      <r>     2.1778    10.7999    10.7999     0.2433     0.0000    -0.0000    -0.0000 </r>
      <r>     2.2108     9.7134     9.7134     0.2605     0.0000    -0.0000    -0.0000 </r>
      <r>     2.2438     9.0131     9.0131     0.2805     0.0000    -0.0000    -0.0000 </r>
      <r>     2.2768     8.8995     8.8995     0.3040     0.0000    -0.0000    -0.0000 </r>
      <r>     2.3098     9.3861     9.3861     0.3319     0.0000    -0.0000    -0.0000 </r>
      <r>     2.3428    10.4059    10.4059     0.3654     0.0000    -0.0000    -0.0000 </r>
      <r>     2.3758    11.8274    11.8274     0.4056     0.0000    -0.0000    -0.0000 </r>
      <r>     2.4088    13.4451    13.4451     0.4537     0.0000    -0.0000    -0.0000 </r>
      <r>     2.4418    15.0719    15.0719     0.5119     0.0000    -0.0000    -0.0000 </r>
      <r>     2.4748    16.6640    16.6640     0.5849     0.0000    -0.0000    -0.0000 </r>
      <r>     2.5078    18.2922    18.2922     0.6806    -0.0000    -0.0000    -0.0000 </r>
      <r>     2.5408    19.9937    19.9937     0.8118    -0.0000    -0.0000     0.0000 </r>
      <r>     2.5738    21.6841    21.6841     0.9936    -0.0000    -0.0000     0.0000 </r>
      <r>     2.6068    23.2010    23.2010     1.2360    -0.0000    -0.0000     0.0000 </r>
      <r>     2.6398    24.4369    24.4369     1.5282     0.0000    -0.0000     0.0000 </r>
      <r>     2.6728    25.4018    25.4018     1.8232     0.0000     0.0000     0.0000 </r>
      <r>     2.7058    26.1001    26.1001     2.0466     0.0000     0.0000     0.0000 </r>
      <r>     2.7388    26.4063    26.4063     2.1391     0.0000     0.0000     0.0000 </r>
      <r>     2.7718    26.1725    26.1725     2.1038     0.0000     0.0000     0.0000 </r>
      <r>     2.8048    25.4636    25.4636     2.0102     0.0000     0.0000    -0.0000 </r>
      <r>     2.8378    24.5940    24.5940     1.9431     0.0000    -0.0000    -0.0000 </r>
      <r>     2.8708    23.8901    23.8901     1.9499     0.0000    -0.0000    -0.0000 </r>
      <r>     2.9038    23.4926    23.4926     2.0406    -0.0000    -0.0000    -0.0000 </r>
      <r>     2.9368    23.3525    23.3525     2.2163    -0.0000    -0.0000    -0.0000 </r>
      <r>     2.9698    23.2483    23.2483     2.4774    -0.0000    -0.0000    -0.0000 </r>
      <r>     3.0028    22.8426    22.8426     2.8031    -0.0000    -0.0000    -0.0000 </r>
      <r>     3.0357    21.9348    21.9348     3.1372    -0.0000    -0.0000    -0.0000 </r>
      <r>     3.0687    20.6973    20.6973     3.4084    -0.0000    -0.0000    -0.0000 </r>
      <r>     3.1017    19.5376    19.5376     3.5775    -0.0000    -0.0000     0.0000 </r>
      <r>     3.1347    18.6987    18.6987     3.6407    -0.0000    -0.0000     0.0000 </r>
      <r>     3.1677    18.0908    18.0908     3.5841    -0.0000    -0.0000     0.0000 </r>
      <r>     3.2007    17.5108    17.5108     3.3841    -0.0000    -0.0000     0.0000 </r>
      <r>     3.2337    16.8752    16.8752     3.0697    -0.0000     0.0000     0.0000 </r>
      <r>     3.2667    16.1670    16.1670     2.7314    -0.0000     0.0000     0.0000 </r>
      <r>     3.2997    15.3198    15.3198     2.4583    -0.0000     0.0000     0.0000 </r>
      <r>     3.3327    14.3194    14.3194     2.2951    -0.0000    -0.0000     0.0000 </r>
      <r>     3.3657    13.3319    13.3319     2.2482    -0.0000    -0.0000     0.0000 </r>
      <r>     3.3987    12.6083    12.6083     2.3007    -0.0000    -0.0000     0.0000 </r>
      <r>     3.4317    12.2831    12.2831     2.4275    -0.0000    -0.0000     0.0000 </r>
      <r>     3.4647    12.2807    12.2807     2.6125    -0.0000    -0.0000    -0.0000 </r>
      <r>     3.4977    12.3777    12.3777     2.8582    -0.0000    -0.0000    -0.0000 </r>
      <r>     3.5307    12.3686    12.3686     3.1765    -0.0000    -0.0000    -0.0000 </r>
      <r>     3.5637    12.2105    12.2105     3.5695    -0.0000    -0.0000    -0.0000 </r>
      <r>     3.5967    12.0161    12.0161     4.0078     0.0000    -0.0000    -0.0000 </r>
      <r>     3.6297    11.9287    11.9287     4.4147     0.0000    -0.0000    -0.0000 </r>
      <r>     3.6627    12.0011    12.0011     4.6882     0.0000    -0.0000    -0.0000 </r>
      <r>     3.6957    12.1733    12.1733     4.7597    -0.0000    -0.0000     0.0000 </r>
      <r>     3.7287    12.3733    12.3733     4.6397    -0.0000    -0.0000     0.0000 </r>
      <r>     3.7617    12.6055    12.6055     4.4073    -0.0000    -0.0000     0.0000 </r>
      <r>     3.7947    12.8926    12.8926     4.1596    -0.0000    -0.0000     0.0000 </r>
      <r>     3.8277    13.1804    13.1804     3.9599    -0.0000     0.0000     0.0000 </r>
      <r>     3.8607    13.3701    13.3701     3.8172    -0.0000     0.0000     0.0000 </r>
      <r>     3.8937    13.4166    13.4166     3.7072    -0.0000     0.0000     0.0000 </r>
      <r>     3.9267    13.3358    13.3358     3.6094    -0.0000     0.0000     0.0000 </r>
      <r>     3.9597    13.1703    13.1703     3.5185    -0.0000     0.0000     0.0000 </r>
      <r>     3.9927    13.0114    13.0114     3.4369    -0.0000     0.0000     0.0000 </r>
[...]
       <r>    19.2341     3.6464   101.9321 </r>
       <r>    19.2644     2.7494   102.0153 </r>
       <r>    19.2946     2.3289   102.0857 </r>
       <r>    19.3249     1.8699   102.1423 </r>
       <r>    19.3551     1.4915   102.1874 </r>
       <r>    19.3854     2.2106   102.2542 </r>
       <r>    19.4156     3.7237   102.3669 </r>
       <r>    19.4459     5.0500   102.5196 </r>
       <r>    19.4761     5.4759   102.6853 </r>
       <r>    19.5064     4.6797   102.8268 </r>
       <r>    19.5366     3.7700   102.9408 </r>
       <r>    19.5668     3.1253   103.0354 </r>
       <r>    19.5971     1.9930   103.0956 </r>
       <r>    19.6273     1.1632   103.1308 </r>
       <r>    19.6576     1.3768   103.1725 </r>
       <r>    19.6878     2.5029   103.2482 </r>
       <r>    19.7181     4.4638   103.3832 </r>
       <r>    19.7483     6.2948   103.5736 </r>
       <r>    19.7786     6.4733   103.7694 </r>
       <r>    19.8088     5.3108   103.9300 </r>
       <r>    19.8391     4.3517   104.0617 </r>
       <r>    19.8693     4.0418   104.1839 </r>
       <r>    19.8996     4.5143   104.3205 </r>
       <r>    19.9298     5.6904   104.4926 </r>
       <r>    19.9601     6.4291   104.6871 </r>
       <r>    19.9903     6.0855   104.8711 </r>
       <r>    20.0206     5.0465   105.0238 </r>
       <r>    20.0508     3.7714   105.1379 </r>
       <r>    20.0811     2.8770   105.2249 </r>
       <r>    20.1113     2.6090   105.3038 </r>
       <r>    20.1416     3.4768   105.4090 </r>
       <r>    20.1718     4.9962   105.5601 </r>
       <r>    20.2020     6.3742   105.7529 </r>
       <r>    20.2323     7.8079   105.9891 </r>
       <r>    20.2625     7.5573   106.2176 </r>
       <r>    20.2928     5.4631   106.3829 </r>
       <r>    20.3230     4.0537   106.5055 </r>
       <r>    20.3533     3.5890   106.6141 </r>
       <r>    20.3835     3.0914   106.7076 </r>
       <r>    20.4138     3.1353   106.8024 </r>
       <r>    20.4440     4.1443   106.9278 </r>
       <r>    20.4743     5.3750   107.0903 </r>
       <r>    20.5045     6.1140   107.2753 </r>
       <r>    20.5348     5.5780   107.4440 </r>
       <r>    20.5650     3.9856   107.5645 </r>
       <r>    20.5953     2.7876   107.6489 </r>
       <r>    20.6255     2.4116   107.7218 </r>
       <r>    20.6558     2.2293   107.7892 </r>
       <r>    20.6860     2.4181   107.8624 </r>
       <r>    20.7163     3.0773   107.9555 </r>
       <r>    20.7465     4.3712   108.0877 </r>
       <r>    20.7767     6.3203   108.2788 </r>
       <r>    20.8070     7.7116   108.5121 </r>
       <r>    20.8372     7.3649   108.7349 </r>
       <r>    20.8675     4.9600   108.8849 </r>
       <r>    20.8977     2.3513   108.9560 </r>
       <r>    20.9280     1.5522   109.0030 </r>
       <r>    20.9582     2.4109   109.0759 </r>
       <r>    20.9885     3.8283   109.1917 </r>
       <r>    21.0187     4.0436   109.3140 </r>
       <r>    21.0490     2.8040   109.3988 </r>
       <r>    21.0792     2.2749   109.4676 </r>
       <r>    21.1095     2.7563   109.5510 </r>
       <r>    21.1397     3.4383   109.6550 </r>
       <r>    21.1700     5.3188   109.8159 </r>
       <r>    21.2002     7.7938   110.0516 </r>
       <r>    21.2305     7.6905   110.2842 </r>
       <r>    21.2607     5.3491   110.4460 </r>
       <r>    21.2910     4.1420   110.5713 </r>
       <r>    21.3212     4.7285   110.7143 </r>
       <r>    21.3515     5.4947   110.8806 </r>
       <r>    21.3817     5.6535   111.0516 </r>
       <r>    21.4119     5.3883   111.2145 </r>
       <r>    21.4422     4.9663   111.3648 </r>
       <r>    21.4724     4.5625   111.5028 </r>
       <r>    21.5027     4.4001   111.6359 </r>
       <r>    21.5329     5.0332   111.7881 </r>
       <r>    21.5632     6.2509   111.9772 </r>
       <r>    21.5934     6.3177   112.1683 </r>
       <r>    21.6237     5.1658   112.3245 </r>
       <r>    21.6539     4.4678   112.4596 </r>
       <r>    21.6842     4.5150   112.5962 </r>
       <r>    21.7144     5.0772   112.7498 </r>
       <r>    21.7447     5.7273   112.9230 </r>
       <r>    21.7749     6.2771   113.1129 </r>
       <r>    21.8052     7.2317   113.3316 </r>
       <r>    21.8354     7.3351   113.5535 </r>
       <r>    21.8657     5.1633   113.7097 </r>
       <r>    21.8959     2.8609   113.7962 </r>
       <r>    21.9262     2.1083   113.8600 </r>
       <r>    21.9564     2.2849   113.9291 </r>
       <r>    21.9866     2.4079   114.0019 </r>
       <r>    22.0169     2.1181   114.0660 </r>
       <r>    22.0471     2.4152   114.1390 </r>
       <r>    22.0774     3.3430   114.2402 </r>
       <r>    22.1076     3.2366   114.3381 </r>
       <r>    22.1379     2.1511   114.4031 </r>
       <r>    22.1681     1.3236   114.4432 </r>
       <r>    22.1984     1.2838   114.4820 </r>
       <r>    22.2286     1.8798   114.5389 </r>
       <r>    22.2589     2.5600   114.6163 </r>
       <r>    22.2891     2.7783   114.7003 </r>
       <r>    22.3194     2.5049   114.7761 </r>
       <r>    22.3496     2.9263   114.8646 </r>
       <r>    22.3799     4.1190   114.9892 </r>
       <r>    22.4101     4.6097   115.1286 </r>
       <r>    22.4404     4.8994   115.2768 </r>
       <r>    22.4706     4.9892   115.4277 </r>
       <r>    22.5009     3.4286   115.5314 </r>
       <r>    22.5311     1.9743   115.5911 </r>
       <r>    22.5614     2.8107   115.6762 </r>
       <r>    22.5916     4.6012   115.8153 </r>
       <r>    22.6218     4.6923   115.9573 </r>
       <r>    22.6521     3.0724   116.0502 </r>
       <r>    22.6823     1.8139   116.1051 </r>
       <r>    22.7126     1.8262   116.1603 </r>
       <r>    22.7428     2.2952   116.2297 </r>
       <r>    22.7731     2.4602   116.3041 </r>
       <r>    22.8033     2.1081   116.3679 </r>
       <r>    22.8336     1.8051   116.4225 </r>
       <r>    22.8638     2.4399   116.4963 </r>
       <r>    22.8941     4.1912   116.6231 </r>
       <r>    22.9243     5.1923   116.7801 </r>
       <r>    22.9546     3.7564   116.8938 </r>
       <r>    22.9848     1.8747   116.9505 </r>
       <r>    23.0151     1.5740   116.9981 </r>
       <r>    23.0453     2.1023   117.0617 </r>
       <r>    23.0756     2.1220   117.1259 </r>
       <r>    23.1058     1.4860   117.1708 </r>
       <r>    23.1361     0.9023   117.1981 </r>
       <r>    23.1663     1.1270   117.2322 </r>
       <r>    23.1965     1.7980   117.2866 </r>
       <r>    23.2268     1.8461   117.3424 </r>
       <r>    23.2570     1.8554   117.3985 </r>
       <r>    23.2873     3.0476   117.4907 </r>
       <r>    23.3175     4.7793   117.6353 </r>
       <r>    23.3478     5.4628   117.8005 </r>
       <r>    23.3780     4.4631   117.9355 </r>
       <r>    23.4083     3.1046   118.0294 </r>
       <r>    23.4385     2.4920   118.1048 </r>
       <r>    23.4688     1.8718   118.1614 </r>
       <r>    23.4990     0.9973   118.1916 </r>
       <r>    23.5293     0.9737   118.2210 </r>
       <r>    23.5595     2.3574   118.2923 </r>
       <r>    23.5898     4.2417   118.4206 </r>
       <r>    23.6200     5.6278   118.5909 </r>
       <r>    23.6503     6.7305   118.7944 </r>
       <r>    23.6805     7.1461   119.0106 </r>
       <r>    23.7108     6.7739   119.2155 </r>
       <r>    23.7410     7.1342   119.4313 </r>
       <r>    23.7713     7.5779   119.6605 </r>
       <r>    23.8015     6.1192   119.8456 </r>
       <r>    23.8317     3.6599   119.9563 </r>
       <r>    23.8620     2.9583   120.0458 </r>
       <r>    23.8922     4.4622   120.1807 </r>
       <r>    23.9225     5.7211   120.3538 </r>
       <r>    23.9527     5.6831   120.5257 </r>
       <r>    23.9830     6.1546   120.7118 </r>
       <r>    24.0132     7.6603   120.9435 </r>
       <r>    24.0435     7.9599   121.1843 </r>
       <r>    24.0737     6.9391   121.3942 </r>
       <r>    24.1040     6.8684   121.6020 </r>
       <r>    24.1342     7.2235   121.8205 </r>
       <r>    24.1645     5.9838   122.0014 </r>
       <r>    24.1947     3.8262   122.1172 </r>
       <r>    24.2250     3.5769   122.2254 </r>
       <r>    24.2552     5.8799   122.4032 </r>
       <r>    24.2855     7.1958   122.6209 </r>
       <r>    24.3157     5.7865   122.7959 </r>
       <r>    24.3460     4.7873   122.9407 </r>
       <r>    24.3762     5.0037   123.0921 </r>
       <r>    24.4064     5.1691   123.2484 </r>
       <r>    24.4367     5.7089   123.4211 </r>
       <r>    24.4669     5.7839   123.5960 </r>
       <r>    24.4972     4.3293   123.7270 </r>
       <r>    24.5274     2.3236   123.7973 </r>
       <r>    24.5577     1.2887   123.8363 </r>
       <r>    24.5879     1.8942   123.8935 </r>
       <r>    24.6182     3.4283   123.9972 </r>
       <r>    24.6484     4.4285   124.1312 </r>
       <r>    24.6787     4.0186   124.2528 </r>
       <r>    24.7089     2.6951   124.3343 </r>
       <r>    24.7392     1.6349   124.3837 </r>
       <r>    24.7694     1.1837   124.4195 </r>
       <r>    24.7997     1.5281   124.4657 </r>
       <r>    24.8299     2.7852   124.5500 </r>
       <r>    24.8602     4.3899   124.6828 </r>
       <r>    24.8904     5.8803   124.8606 </r>
       <r>    24.9207     7.1436   125.0767 </r>
       <r>    24.9509     7.9750   125.3179 </r>
       <r>    24.9812     8.1149   125.5634 </r>
       <r>    25.0114     7.7882   125.7990 </r>
       <r>    25.0416     7.3317   126.0207 </r>
       <r>    25.0719     6.3205   126.2119 </r>
       <r>    25.1021     5.6527   126.3829 </r>
       <r>    25.1324     6.2972   126.5734 </r>
       <r>    25.1626     6.1305   126.7588 </r>
       <r>    25.1929     4.1471   126.8842 </r>
       <r>    25.2231     2.4224   126.9575 </r>
       <r>    25.2534     2.1622   127.0229 </r>
       <r>    25.2836     2.7226   127.1053 </r>
       <r>    25.3139     3.3884   127.2078 </r>
       <r>    25.3441     3.9519   127.3273 </r>
       <r>    25.3744     4.4668   127.4624 </r>
       <r>    25.4046     4.5863   127.6011 </r>
       <r>    25.4349     3.5340   127.7080 </r>
       <r>    25.4651     2.2015   127.7746 </r>
       <r>    25.4954     2.1212   127.8388 </r>
       <r>    25.5256     2.8303   127.9244 </r>
       <r>    25.5559     2.8004   128.0091 </r>
       <r>    25.5861     2.4022   128.0818 </r>
       <r>    25.6163     2.2107   128.1486 </r>
       <r>    25.6466     1.8448   128.2044 </r>
       <r>    25.6768     1.8908   128.2616 </r>
       <r>    25.7071     3.2561   128.3601 </r>
       <r>    25.7373     5.6822   128.5320 </r>
       <r>    25.7676     6.6377   128.7328 </r>
       <r>    25.7978     5.0614   128.8858 </r>
       <r>    25.8281     3.3803   128.9881 </r>
       <r>    25.8583     2.5871   129.0663 </r>
       <r>    25.8886     1.6435   129.1161 </r>
       <r>    25.9188     0.6206   129.1348 </r>
       <r>    25.9491     0.1478   129.1393 </r>
       <r>    25.9793     0.2102   129.1457 </r>
       <r>    26.0096     0.8037   129.1700 </r>
       <r>    26.0398     1.7368   129.2225 </r>
       <r>    26.0701     2.2794   129.2914 </r>
       <r>    26.1003     2.3673   129.3631 </r>
       <r>    26.1306     2.1395   129.4278 </r>
       <r>    26.1608     1.5394   129.4743 </r>
       <r>    26.1911     1.1642   129.5095 </r>
       <r>    26.2213     0.9385   129.5379 </r>
       <r>    26.2515     0.6160   129.5566 </r>
       <r>    26.2818     0.6405   129.5759 </r>
       <r>    26.3120     0.9039   129.6033 </r>
       <r>    26.3423     0.7670   129.6265 </r>
       <r>    26.3725     0.3471   129.6370 </r>
       <r>    26.4028     0.2209   129.6437 </r>
       <r>    26.4330     0.7304   129.6657 </r>
       <r>    26.4633     1.8959   129.7231 </r>
       <r>    26.4935     2.9166   129.8113 </r>
       <r>    26.5238     2.8382   129.8972 </r>
       <r>    26.5540     1.7360   129.9497 </r>
       <r>    26.5843     0.6161   129.9683 </r>
       <r>    26.6145     0.1174   129.9719 </r>
       <r>    26.6448     0.0122   129.9722 </r>
       <r>    26.6750     0.0098   129.9725 </r>
       <r>    26.7053     0.0590   129.9743 </r>
       <r>    26.7355     0.1880   129.9800 </r>
       <r>    26.7658     0.3007   129.9891 </r>
       <r>    26.7960     0.2415   129.9964 </r>
       <r>    26.8262     0.0974   129.9993 </r>
       <r>    26.8565     0.0197   129.9999 </r>
       <r>    26.8867     0.0020   130.0000 </r>
       <r>    26.9170     0.0001   130.0000 </r>
       <r>    26.9472     0.0000   130.0000 </r>
       <r>    26.9775     0.0000   130.0000 </r>
       <r>    27.0077     0.0000   130.0000 </r>
       <r>    27.0380     0.0000   130.0000 </r>
       <r>    27.0682     0.0000   130.0000 </r>
       <r>    27.0985     0.0000   130.0000 </r>
       <r>    27.1287     0.0000   130.0000 </r>
       <r>    27.1590     0.0000   130.0000 </r>
       <r>    27.1892     0.0000   130.0000 </r>
       <r>    27.2195     0.0000   130.0000 </r>
       <r>    27.2497     0.0000   130.0000 </r>
       <r>    27.2800     0.0000   130.0000 </r>
       <r>    27.3102     0.0000   130.0000 </r>
       <r>    27.3405     0.0000   130.0000 </r>
       <r>    27.3707     0.0000   130.0000 </r>
       <r>    27.4010     0.0000   130.0000 </r>
       <r>    27.4312     0.0000   130.0000 </r>
       <r>    27.4614     0.0000   130.0000 </r>
       <r>    27.4917     0.0000   130.0000 </r>
       <r>    27.5219     0.0000   130.0000 </r>
       <r>    27.5522     0.0000   130.0000 </r>
       <r>    27.5824     0.0000   130.0000 </r>
       <r>    27.6127     0.0000   130.0000 </r>
       <r>    27.6429     0.0000   130.0000 </r>
       <r>    27.6732     0.0000   130.0000 </r>
       <r>    27.7034     0.0000   130.0000 </r>
       <r>    27.7337     0.0000   130.0000 </r>
       <r>    27.7639     0.0000   130.0000 </r>
       <r>    27.7942     0.0000   130.0000 </r>
       <r>    27.8244     0.0000   130.0000 </r>
       <r>    27.8547     0.0000   130.0000 </r>
       <r>    27.8849     0.0000   130.0000 </r>
       <r>    27.9152     0.0000   130.0000 </r>
       <r>    27.9454     0.0000   130.0000 </r>
       <r>    27.9757     0.0000   130.0000 </r>
       <r>    28.0059     0.0000   130.0000 </r>
       <r>    28.0361     0.0000   130.0000 </r>
       <r>    28.0664     0.0000   130.0000 </r>
       <r>    28.0966     0.0000   130.0000 </r>
       <r>    28.1269     0.0000   130.0000 </r>
       <r>    28.1571     0.0000   130.0000 </r>
       <r>    28.1874     0.0000   130.0000 </r>
       <r>    28.2176     0.0000   130.0000 </r>
       <r>    28.2479     0.0000   130.0000 </r>
       <r>    28.2781     0.0000   130.0000 </r>
       <r>    28.3084     0.0000   130.0000 </r>
       <r>    28.3386     0.0000   130.0000 </r>
       <r>    28.3689     0.0000   130.0000 </r>
       <r>    28.3991     0.0000   130.0000 </r>
       <r>    28.4294     0.0000   130.0000 </r>
       <r>    28.4596     0.0000   130.0000 </r>
       <r>    28.4899     0.0000   130.0000 </r>
       <r>    28.5201     0.0000   130.0000 </r>
       <r>    28.5504     0.0000   130.0000 </r>
       <r>    28.5806     0.0000   130.0000 </r>
       <r>    28.6109     0.0000   130.0000 </r>
       <r>    28.6411     0.0000   130.0000 </r>
       <r>    28.6713     0.0000   130.0000 </r>
       <r>    28.7016     0.0000   130.0000 </r>
       <r>    28.7318     0.0000   130.0000 </r>
       <r>    28.7621     0.0000   130.0000 </r>
       <r>    28.7923     0.0000   130.0000 </r>
       <r>    28.8226     0.0000   130.0000 </r>
       <r>    28.8528     0.0000   130.0000 </r>
       <r>    28.8831     0.0000   130.0000 </r>
       <r>    28.9133     0.0000   130.0000 </r>
       <r>    28.9436     0.0000   130.0000 </r>
       <r>    28.9738     0.0000   130.0000 </r>
       <r>    29.0041     0.0000   130.0000 </r>
       <r>    29.0343     0.0000   130.0000 </r>
       <r>    29.0646     0.0000   130.0000 </r>
       <r>    29.0948     0.0000   130.0000 </r>
       <r>    29.1251     0.0000   130.0000 </r>
       <r>    29.1553     0.0000   130.0000 </r>
       <r>    29.1856     0.0000   130.0000 </r>
       <r>    29.2158     0.0000   130.0000 </r>
       <r>    29.2460     0.0000   130.0000 </r>
       <r>    29.2763     0.0000   130.0000 </r>
       <r>    29.3065     0.0000   130.0000 </r>
       <r>    29.3368     0.0000   130.0000 </r>
       <r>    29.3670     0.0000   130.0000 </r>
       <r>    29.3973     0.0000   130.0000 </r>
       <r>    29.4275     0.0000   130.0000 </r>
       <r>    29.4578     0.0000   130.0000 </r>
       <r>    29.4880     0.0000   130.0000 </r>
       <r>    29.5183     0.0000   130.0000 </r>
       <r>    29.5485     0.0000   130.0000 </r>
       <r>    29.5788     0.0000   130.0000 </r>
       <r>    29.6090     0.0000   130.0000 </r>
       <r>    29.6393     0.0000   130.0000 </r>
       <r>    29.6695     0.0000   130.0000 </r>
       <r>    29.6998     0.0000   130.0000 </r>
       <r>    29.7300     0.0000   130.0000 </r>
       <r>    29.7603     0.0000   130.0000 </r>
       <r>    29.7905     0.0000   130.0000 </r>
       <r>    29.8208     0.0000   130.0000 </r>
       <r>    29.8510     0.0000   130.0000 </r>
       <r>    29.8812     0.0000   130.0000 </r>
       <r>    29.9115     0.0000   130.0000 </r>
       <r>    29.9417     0.0000   130.0000 </r>
       <r>    29.9720     0.0000   130.0000 </r>
       <r>    30.0022     0.0000   130.0000 </r>
       <r>    30.0325     0.0000   130.0000 </r>
       <r>    30.0627     0.0000   130.0000 </r>
       <r>    30.0930     0.0000   130.0000 </r>
       <r>    30.1232     0.0000   130.0000 </r>
       <r>    30.1535     0.0000   130.0000 </r>
       <r>    30.1837     0.0000   130.0000 </r>
       <r>    30.2140     0.0000   130.0000 </r>
       <r>    30.2442     0.0000   130.0000 </r>
       <r>    30.2745     0.0000   130.0000 </r>
       <r>    30.3047     0.0000   130.0000 </r>
       <r>    30.3350     0.0000   130.0000 </r>
       <r>    30.3652     0.0000   130.0000 </r>
       <r>    30.3955     0.0000   130.0000 </r>
       <r>    30.4257     0.0000   130.0000 </r>
       <r>    30.4559     0.0000   130.0000 </r>
       <r>    30.4862     0.0000   130.0000 </r>
       <r>    30.5164     0.0000   130.0000 </r>
       <r>    30.5467     0.0000   130.0000 </r>
       <r>    30.5769     0.0000   130.0000 </r>
       <r>    30.6072     0.0000   130.0000 </r>
       <r>    30.6374     0.0000   130.0000 </r>
       <r>    30.6677     0.0000   130.0000 </r>
       <r>    30.6979     0.0000   130.0000 </r>
       <r>    30.7282     0.0000   130.0000 </r>
       <r>    30.7584     0.0000   130.0000 </r>
       <r>    30.7887     0.0000   130.0000 </r>
       <r>    30.8189     0.0000   130.0000 </r>
       <r>    30.8492     0.0000   130.0000 </r>
       <r>    30.8794     0.0000   130.0000 </r>
      </set>
     </set>
    </array>
   </total>
  </dos>
 </calculation>
 <structure name="finalpos" >
  <crystal>
   <varray name="basis" >
    <v>       1.59265383      -2.75855735       0.00000000 </v>
    <v>       1.59265383       2.75855735       0.00000000 </v>
    <v>       0.00000000       0.00000000      13.98103146 </v>
   </varray>
   <i name="volume">    122.84928053 </i>
   <varray name="rec_basis" >
    <v>       0.31394142      -0.18125416       0.00000000 </v>
    <v>       0.31394142       0.18125416       0.00000000 </v>
    <v>       0.00000000       0.00000000       0.07152548 </v>
   </varray>
  </crystal>
  <varray name="positions" >
   <v>       0.33333333       0.66666667       0.25000000 </v>
   <v>       0.66666667       0.33333333       0.75000000 </v>
   <v>       0.33333333       0.66666667       0.63810651 </v>
   <v>       0.66666667       0.33333333       0.36189349 </v>
   <v>       0.66666667       0.33333333       0.13810650 </v>
   <v>       0.33333333       0.66666667       0.86189353 </v>
  </varray>
 </structure>
</modeling>
