   6   6   0   0
  0.2047488E+02  0.3185308E-09  0.3185308E-09  0.1398103E-08  0.5000000E-15
  1.000000000000000E-004
  CAR 
 MoTe2                                   
     30.87941687    -59.83285611 3000      5.71352072      1.00000000
    -59.833  0.0000E+00  0.0000E+00
    -59.803  0.0000E+00  0.0000E+00
    -59.772  0.0000E+00  0.0000E+00
    -59.742  0.0000E+00  0.0000E+00
    -59.712  0.0000E+00  0.0000E+00
    -59.682  0.0000E+00  0.0000E+00
    -59.651  0.0000E+00  0.0000E+00
    -59.621  0.0000E+00  0.0000E+00
    -59.591  0.0000E+00  0.0000E+00
    -59.561  0.0000E+00  0.0000E+00
    -59.530  0.0000E+00  0.0000E+00
    -59.500  0.0000E+00  0.0000E+00
    -59.470  0.0000E+00  0.0000E+00
    -59.440  0.0000E+00  0.0000E+00
    -59.409  0.0000E+00  0.0000E+00
    -59.379  0.0000E+00  0.0000E+00
    -59.349  0.0000E+00  0.0000E+00
    -59.319  0.0000E+00  0.0000E+00
    -59.288  0.0000E+00  0.0000E+00
    -59.258  0.0000E+00  0.0000E+00
    -59.228  0.0000E+00  0.0000E+00
    -59.198  0.0000E+00  0.0000E+00
    -59.167  0.0000E+00  0.0000E+00
    -59.137  0.0000E+00  0.0000E+00
    -59.107  0.0000E+00  0.0000E+00
    -59.077  0.0000E+00  0.0000E+00
    -59.046  0.0000E+00  0.0000E+00
    -59.016  0.0000E+00  0.0000E+00
    -58.986  0.0000E+00  0.0000E+00
    -58.956  0.0000E+00  0.0000E+00
    -58.925  0.0000E+00  0.0000E+00
    -58.895  0.0000E+00  0.0000E+00
    -58.865  0.0000E+00  0.0000E+00
    -58.835  0.0000E+00  0.0000E+00
    -58.804  0.0000E+00  0.0000E+00
    -58.774  0.0000E+00  0.0000E+00
    -58.744  0.0000E+00  0.0000E+00
    -58.714  0.0000E+00  0.0000E+00
    -58.683  0.0000E+00  0.0000E+00
    -58.653  0.0000E+00  0.0000E+00
    -58.623  0.0000E+00  0.0000E+00
    -58.593  0.0000E+00  0.0000E+00
    -58.562  0.0000E+00  0.0000E+00
    -58.532  0.0000E+00  0.0000E+00
    -58.502  0.0000E+00  0.0000E+00
    -58.472  0.0000E+00  0.0000E+00
    -58.441  0.0000E+00  0.0000E+00
    -58.411  0.0000E+00  0.0000E+00
    -58.381  0.0000E+00  0.0000E+00
    -58.351  0.0000E+00  0.0000E+00
    -58.320  0.0000E+00  0.0000E+00
    -58.290  0.0000E+00  0.0000E+00
    -58.260  0.0000E+00  0.0000E+00
    -58.230  0.0000E+00  0.0000E+00
    -58.199  0.0000E+00  0.0000E+00
    -58.169  0.0000E+00  0.0000E+00
    -58.139  0.0000E+00  0.0000E+00
    -58.109  0.0000E+00  0.0000E+00
    -58.079  0.0000E+00  0.0000E+00
    -58.048  0.0000E+00  0.0000E+00
    -58.018  0.0000E+00  0.0000E+00
    -57.988  0.0000E+00  0.0000E+00
    -57.958  0.0000E+00  0.0000E+00
    -57.927  0.0000E+00  0.0000E+00
    -57.897  0.0000E+00  0.0000E+00
    -57.867  0.0000E+00  0.0000E+00
    -57.837  0.0000E+00  0.0000E+00
    -57.806  0.0000E+00  0.0000E+00
    -57.776  0.0000E+00  0.0000E+00
    -57.746  0.0000E+00  0.0000E+00
    -57.716  0.0000E+00  0.0000E+00
    -57.685  0.0000E+00  0.0000E+00
    -57.655  0.0000E+00  0.0000E+00
    -57.625  0.0000E+00  0.0000E+00
    -57.595  0.0000E+00  0.0000E+00
    -57.564  0.0000E+00  0.0000E+00
    -57.534  0.0000E+00  0.0000E+00
    -57.504  0.0000E+00  0.0000E+00
    -57.474  0.0000E+00  0.0000E+00
    -57.443  0.0000E+00  0.0000E+00
    -57.413  0.0000E+00  0.0000E+00
    -57.383  0.0000E+00  0.0000E+00
    -57.353  0.0000E+00  0.0000E+00
    -57.322  0.0000E+00  0.0000E+00
    -57.292  0.0000E+00  0.0000E+00
    -57.262  0.0000E+00  0.0000E+00
    -57.232  0.0000E+00  0.0000E+00
    -57.201  0.0000E+00  0.0000E+00
    -57.171  0.0000E+00  0.0000E+00
    -57.141  0.0000E+00  0.0000E+00
    -57.111  0.0000E+00  0.0000E+00
    -57.080  0.0000E+00  0.0000E+00
    -57.050  0.0000E+00  0.0000E+00
    -57.020  0.0000E+00  0.0000E+00
    -56.990  0.0000E+00  0.0000E+00
    -56.959  0.0000E+00  0.0000E+00
    -56.929  0.0000E+00  0.0000E+00
    -56.899  0.0000E+00  0.0000E+00
    -56.869  0.0000E+00  0.0000E+00
    -56.838  0.0000E+00  0.0000E+00
    -56.808  0.0000E+00  0.0000E+00
    -56.778  0.0000E+00  0.0000E+00
    -56.748  0.0000E+00  0.0000E+00
    -56.717  0.0000E+00  0.0000E+00
    -56.687  0.0000E+00  0.0000E+00
    -56.657  0.0000E+00  0.0000E+00
    -56.627  0.0000E+00  0.0000E+00
    -56.596  0.0000E+00  0.0000E+00
    -56.566  0.0000E+00  0.0000E+00
    -56.536  0.0000E+00  0.0000E+00
    -56.506  0.0000E+00  0.0000E+00
    -56.475  0.0000E+00  0.0000E+00
    -56.445  0.0000E+00  0.0000E+00
    -56.415  0.0000E+00  0.0000E+00
    -56.385  0.0000E+00  0.0000E+00
    -56.354  0.0000E+00  0.0000E+00
    -56.324  0.0000E+00  0.0000E+00
    -56.294  0.0000E+00  0.0000E+00
    -56.264  0.0000E+00  0.0000E+00
    -56.233  0.0000E+00  0.0000E+00
    -56.203  0.0000E+00  0.0000E+00
    -56.173  0.0000E+00  0.0000E+00
    -56.143  0.0000E+00  0.0000E+00
    -56.112  0.0000E+00  0.0000E+00
    -56.082  0.0000E+00  0.0000E+00
    -56.052  0.0000E+00  0.0000E+00
    -56.022  0.0000E+00  0.0000E+00
    -55.991  0.4690E-14  0.1419E-15
    -55.961  0.3865E-11  0.1170E-12
    -55.931  0.1529E-08  0.4637E-10
    -55.901  0.3016E-06  0.9168E-08
    -55.870  0.2994E-04  0.9147E-06
    -55.840  0.1515E-02  0.4675E-04
    -55.810  0.3972E-01  0.1248E-02
    -55.780  0.5485E+00  0.1784E-01
    -55.749  0.4055E+01  0.1405E+00
    -55.719  0.1621E+02  0.6308E+00
    -55.689  0.3513E+02  0.1693E+01
    -55.659  0.4099E+02  0.2933E+01
    -55.628  0.2545E+02  0.3703E+01
    -55.598  0.8296E+01  0.3954E+01
    -55.568  0.1400E+01  0.3996E+01
    -55.538  0.1207E+00  0.4000E+01
    -55.507  0.5260E-02  0.4000E+01
    -55.477  0.1148E-03  0.4000E+01
    -55.447  0.1247E-05  0.4000E+01
    -55.417  0.6689E-08  0.4000E+01
    -55.386  0.1766E-10  0.4000E+01
    -55.356  0.2060E-13  0.4000E+01
    -55.326  0.0000E+00  0.4000E+01
    -55.296  0.0000E+00  0.4000E+01
    -55.265  0.0000E+00  0.4000E+01
    -55.235  0.0000E+00  0.4000E+01
    -55.205  0.0000E+00  0.4000E+01
    -55.175  0.0000E+00  0.4000E+01
    -55.144  0.0000E+00  0.4000E+01
    -55.114  0.0000E+00  0.4000E+01
    -55.084  0.0000E+00  0.4000E+01
    -55.054  0.0000E+00  0.4000E+01
    -55.024  0.0000E+00  0.4000E+01
    -54.993  0.0000E+00  0.4000E+01
    -54.963  0.0000E+00  0.4000E+01
    -54.933  0.0000E+00  0.4000E+01
    -54.903  0.0000E+00  0.4000E+01
    -54.872  0.0000E+00  0.4000E+01
    -54.842  0.0000E+00  0.4000E+01
    -54.812  0.0000E+00  0.4000E+01
    -54.782  0.0000E+00  0.4000E+01
    -54.751  0.0000E+00  0.4000E+01
    -54.721  0.0000E+00  0.4000E+01
    -54.691  0.0000E+00  0.4000E+01
    -54.661  0.0000E+00  0.4000E+01
    -54.630  0.0000E+00  0.4000E+01
    -54.600  0.0000E+00  0.4000E+01
    -54.570  0.0000E+00  0.4000E+01
    -54.540  0.0000E+00  0.4000E+01
    -54.509  0.0000E+00  0.4000E+01
    -54.479  0.0000E+00  0.4000E+01
    -54.449  0.0000E+00  0.4000E+01
    -54.419  0.0000E+00  0.4000E+01
    -54.388  0.0000E+00  0.4000E+01
    -54.358  0.0000E+00  0.4000E+01
    -54.328  0.0000E+00  0.4000E+01
    -54.298  0.0000E+00  0.4000E+01
    -54.267  0.0000E+00  0.4000E+01
    -54.237  0.0000E+00  0.4000E+01
    -54.207  0.0000E+00  0.4000E+01
    -54.177  0.0000E+00  0.4000E+01
    -54.146  0.0000E+00  0.4000E+01
    -54.116  0.0000E+00  0.4000E+01
    -54.086  0.0000E+00  0.4000E+01
    -54.056  0.0000E+00  0.4000E+01
    -54.025  0.0000E+00  0.4000E+01
    -53.995  0.0000E+00  0.4000E+01
    -53.965  0.0000E+00  0.4000E+01
    -53.935  0.0000E+00  0.4000E+01
    -53.904  0.0000E+00  0.4000E+01
    -53.874  0.0000E+00  0.4000E+01
    -53.844  0.0000E+00  0.4000E+01
    -53.814  0.0000E+00  0.4000E+01
    -53.783  0.0000E+00  0.4000E+01
    -53.753  0.0000E+00  0.4000E+01
    -53.723  0.0000E+00  0.4000E+01
    -53.693  0.0000E+00  0.4000E+01
    -53.662  0.0000E+00  0.4000E+01
    -53.632  0.0000E+00  0.4000E+01
    -53.602  0.0000E+00  0.4000E+01
    -53.572  0.0000E+00  0.4000E+01
    -53.541  0.0000E+00  0.4000E+01
    -53.511  0.0000E+00  0.4000E+01
    -53.481  0.0000E+00  0.4000E+01
    -53.451  0.0000E+00  0.4000E+01
    -53.420  0.0000E+00  0.4000E+01
    -53.390  0.0000E+00  0.4000E+01
    -53.360  0.0000E+00  0.4000E+01
    -53.330  0.0000E+00  0.4000E+01
    -53.299  0.0000E+00  0.4000E+01
    -53.269  0.0000E+00  0.4000E+01
    -53.239  0.0000E+00  0.4000E+01
    -53.209  0.0000E+00  0.4000E+01
    -53.178  0.0000E+00  0.4000E+01
    -53.148  0.0000E+00  0.4000E+01
    -53.118  0.0000E+00  0.4000E+01
    -53.088  0.0000E+00  0.4000E+01
    -53.057  0.0000E+00  0.4000E+01
    -53.027  0.0000E+00  0.4000E+01
    -52.997  0.0000E+00  0.4000E+01
    -52.967  0.0000E+00  0.4000E+01
    -52.936  0.0000E+00  0.4000E+01
    -52.906  0.0000E+00  0.4000E+01
    -52.876  0.0000E+00  0.4000E+01
    -52.846  0.0000E+00  0.4000E+01
    -52.815  0.0000E+00  0.4000E+01
    -52.785  0.0000E+00  0.4000E+01
    -52.755  0.0000E+00  0.4000E+01
    -52.725  0.0000E+00  0.4000E+01
    -52.694  0.0000E+00  0.4000E+01
    -52.664  0.0000E+00  0.4000E+01
    -52.634  0.0000E+00  0.4000E+01
    -52.604  0.0000E+00  0.4000E+01
    -52.573  0.0000E+00  0.4000E+01
    -52.543  0.0000E+00  0.4000E+01
    -52.513  0.0000E+00  0.4000E+01
    -52.483  0.0000E+00  0.4000E+01
    -52.452  0.0000E+00  0.4000E+01
    -52.422  0.0000E+00  0.4000E+01
    -52.392  0.0000E+00  0.4000E+01
    -52.362  0.0000E+00  0.4000E+01
    -52.331  0.0000E+00  0.4000E+01
    -52.301  0.0000E+00  0.4000E+01
    -52.271  0.0000E+00  0.4000E+01
    -52.241  0.0000E+00  0.4000E+01
    -52.210  0.0000E+00  0.4000E+01
    -52.180  0.0000E+00  0.4000E+01
    -52.150  0.0000E+00  0.4000E+01
    -52.120  0.0000E+00  0.4000E+01
    -52.089  0.0000E+00  0.4000E+01
    -52.059  0.0000E+00  0.4000E+01
    -52.029  0.0000E+00  0.4000E+01
    -51.999  0.0000E+00  0.4000E+01
    -51.969  0.0000E+00  0.4000E+01
    -51.938  0.0000E+00  0.4000E+01
    -51.908  0.0000E+00  0.4000E+01
    -51.878  0.0000E+00  0.4000E+01
    -51.848  0.0000E+00  0.4000E+01
    -51.817  0.0000E+00  0.4000E+01
    -51.787  0.0000E+00  0.4000E+01
    -51.757  0.0000E+00  0.4000E+01
    -51.727  0.0000E+00  0.4000E+01
    -51.696  0.0000E+00  0.4000E+01
    -51.666  0.0000E+00  0.4000E+01
    -51.636  0.0000E+00  0.4000E+01
    -51.606  0.0000E+00  0.4000E+01
    -51.575  0.0000E+00  0.4000E+01
    -51.545  0.0000E+00  0.4000E+01
    -51.515  0.0000E+00  0.4000E+01
    -51.485  0.0000E+00  0.4000E+01
    -51.454  0.0000E+00  0.4000E+01
    -51.424  0.0000E+00  0.4000E+01
    -51.394  0.0000E+00  0.4000E+01
    -51.364  0.0000E+00  0.4000E+01
    -51.333  0.0000E+00  0.4000E+01
    -51.303  0.0000E+00  0.4000E+01
    -51.273  0.0000E+00  0.4000E+01
    -51.243  0.0000E+00  0.4000E+01
    -51.212  0.0000E+00  0.4000E+01
    -51.182  0.0000E+00  0.4000E+01
    -51.152  0.0000E+00  0.4000E+01
    -51.122  0.0000E+00  0.4000E+01
    -51.091  0.0000E+00  0.4000E+01
    -51.061  0.0000E+00  0.4000E+01
    -51.031  0.0000E+00  0.4000E+01
    -51.001  0.0000E+00  0.4000E+01
    -50.970  0.0000E+00  0.4000E+01
    -50.940  0.0000E+00  0.4000E+01
    -50.910  0.0000E+00  0.4000E+01
    -50.880  0.0000E+00  0.4000E+01
    -50.849  0.0000E+00  0.4000E+01
    -50.819  0.0000E+00  0.4000E+01
    -50.789  0.0000E+00  0.4000E+01
    -50.759  0.0000E+00  0.4000E+01
    -50.728  0.0000E+00  0.4000E+01
    -50.698  0.0000E+00  0.4000E+01
    -50.668  0.0000E+00  0.4000E+01
    -50.638  0.0000E+00  0.4000E+01
    -50.607  0.0000E+00  0.4000E+01
    -50.577  0.0000E+00  0.4000E+01
    -50.547  0.0000E+00  0.4000E+01
    -50.517  0.0000E+00  0.4000E+01
    -50.486  0.0000E+00  0.4000E+01
    -50.456  0.0000E+00  0.4000E+01
    -50.426  0.0000E+00  0.4000E+01
    -50.396  0.0000E+00  0.4000E+01
    -50.365  0.0000E+00  0.4000E+01
    -50.335  0.0000E+00  0.4000E+01
    -50.305  0.0000E+00  0.4000E+01
    -50.275  0.0000E+00  0.4000E+01
    -50.244  0.0000E+00  0.4000E+01
    -50.214  0.0000E+00  0.4000E+01
    -50.184  0.0000E+00  0.4000E+01
    -50.154  0.0000E+00  0.4000E+01
    -50.123  0.0000E+00  0.4000E+01
    -50.093  0.0000E+00  0.4000E+01
    -50.063  0.0000E+00  0.4000E+01
    -50.033  0.0000E+00  0.4000E+01
    -50.002  0.0000E+00  0.4000E+01
    -49.972  0.0000E+00  0.4000E+01
    -49.942  0.0000E+00  0.4000E+01
    -49.912  0.0000E+00  0.4000E+01
    -49.881  0.0000E+00  0.4000E+01
    -49.851  0.0000E+00  0.4000E+01
    -49.821  0.0000E+00  0.4000E+01
    -49.791  0.0000E+00  0.4000E+01
    -49.760  0.0000E+00  0.4000E+01
    -49.730  0.0000E+00  0.4000E+01
    -49.700  0.0000E+00  0.4000E+01
    -49.670  0.0000E+00  0.4000E+01
    -49.639  0.0000E+00  0.4000E+01
    -49.609  0.0000E+00  0.4000E+01
    -49.579  0.0000E+00  0.4000E+01
    -49.549  0.0000E+00  0.4000E+01
    -49.518  0.0000E+00  0.4000E+01
    -49.488  0.0000E+00  0.4000E+01
    -49.458  0.0000E+00  0.4000E+01
    -49.428  0.0000E+00  0.4000E+01
    -49.397  0.0000E+00  0.4000E+01
    -49.367  0.0000E+00  0.4000E+01
    -49.337  0.0000E+00  0.4000E+01
    -49.307  0.0000E+00  0.4000E+01
    -49.276  0.0000E+00  0.4000E+01
    -49.246  0.0000E+00  0.4000E+01
    -49.216  0.0000E+00  0.4000E+01
    -49.186  0.0000E+00  0.4000E+01
    -49.155  0.0000E+00  0.4000E+01
    -49.125  0.0000E+00  0.4000E+01
    -49.095  0.0000E+00  0.4000E+01
    -49.065  0.0000E+00  0.4000E+01
    -49.034  0.0000E+00  0.4000E+01
    -49.004  0.0000E+00  0.4000E+01
    -48.974  0.0000E+00  0.4000E+01
    -48.944  0.0000E+00  0.4000E+01
    -48.914  0.0000E+00  0.4000E+01
    -48.883  0.0000E+00  0.4000E+01
    -48.853  0.0000E+00  0.4000E+01
    -48.823  0.0000E+00  0.4000E+01
    -48.793  0.0000E+00  0.4000E+01
    -48.762  0.0000E+00  0.4000E+01
    -48.732  0.0000E+00  0.4000E+01
    -48.702  0.0000E+00  0.4000E+01
    -48.672  0.0000E+00  0.4000E+01
    -48.641  0.0000E+00  0.4000E+01
    -48.611  0.0000E+00  0.4000E+01
    -48.581  0.0000E+00  0.4000E+01
    -48.551  0.0000E+00  0.4000E+01
    -48.520  0.0000E+00  0.4000E+01
    -48.490  0.0000E+00  0.4000E+01
    -48.460  0.0000E+00  0.4000E+01
    -48.430  0.0000E+00  0.4000E+01
    -48.399  0.0000E+00  0.4000E+01
    -48.369  0.0000E+00  0.4000E+01
    -48.339  0.0000E+00  0.4000E+01
    -48.309  0.0000E+00  0.4000E+01
    -48.278  0.0000E+00  0.4000E+01
    -48.248  0.0000E+00  0.4000E+01
    -48.218  0.0000E+00  0.4000E+01
    -48.188  0.0000E+00  0.4000E+01
    -48.157  0.0000E+00  0.4000E+01
    -48.127  0.0000E+00  0.4000E+01
    -48.097  0.0000E+00  0.4000E+01
    -48.067  0.0000E+00  0.4000E+01
    -48.036  0.0000E+00  0.4000E+01
    -48.006  0.0000E+00  0.4000E+01
    -47.976  0.0000E+00  0.4000E+01
    -47.946  0.0000E+00  0.4000E+01
    -47.915  0.0000E+00  0.4000E+01
    -47.885  0.0000E+00  0.4000E+01
    -47.855  0.0000E+00  0.4000E+01
    -47.825  0.0000E+00  0.4000E+01
    -47.794  0.0000E+00  0.4000E+01
    -47.764  0.0000E+00  0.4000E+01
    -47.734  0.0000E+00  0.4000E+01
    -47.704  0.0000E+00  0.4000E+01
    -47.673  0.0000E+00  0.4000E+01
    -47.643  0.0000E+00  0.4000E+01
    -47.613  0.0000E+00  0.4000E+01
    -47.583  0.0000E+00  0.4000E+01
    -47.552  0.0000E+00  0.4000E+01
    -47.522  0.0000E+00  0.4000E+01
    -47.492  0.0000E+00  0.4000E+01
    -47.462  0.0000E+00  0.4000E+01
    -47.431  0.0000E+00  0.4000E+01
    -47.401  0.0000E+00  0.4000E+01
    -47.371  0.0000E+00  0.4000E+01
    -47.341  0.0000E+00  0.4000E+01
    -47.310  0.0000E+00  0.4000E+01
    -47.280  0.0000E+00  0.4000E+01
    -47.250  0.0000E+00  0.4000E+01
    -47.220  0.0000E+00  0.4000E+01
    -47.189  0.0000E+00  0.4000E+01
    -47.159  0.0000E+00  0.4000E+01
    -47.129  0.0000E+00  0.4000E+01
    -47.099  0.0000E+00  0.4000E+01
    -47.068  0.0000E+00  0.4000E+01
    -47.038  0.0000E+00  0.4000E+01
    -47.008  0.0000E+00  0.4000E+01
    -46.978  0.0000E+00  0.4000E+01
    -46.947  0.0000E+00  0.4000E+01
    -46.917  0.0000E+00  0.4000E+01
    -46.887  0.0000E+00  0.4000E+01
    -46.857  0.0000E+00  0.4000E+01
    -46.826  0.0000E+00  0.4000E+01
    -46.796  0.0000E+00  0.4000E+01
    -46.766  0.0000E+00  0.4000E+01
    -46.736  0.0000E+00  0.4000E+01
    -46.705  0.0000E+00  0.4000E+01
    -46.675  0.0000E+00  0.4000E+01
    -46.645  0.0000E+00  0.4000E+01
    -46.615  0.0000E+00  0.4000E+01
    -46.584  0.0000E+00  0.4000E+01
    -46.554  0.0000E+00  0.4000E+01
    -46.524  0.0000E+00  0.4000E+01
    -46.494  0.0000E+00  0.4000E+01
    -46.463  0.0000E+00  0.4000E+01
    -46.433  0.0000E+00  0.4000E+01
    -46.403  0.0000E+00  0.4000E+01
    -46.373  0.0000E+00  0.4000E+01
    -46.342  0.0000E+00  0.4000E+01
    -46.312  0.0000E+00  0.4000E+01
    -46.282  0.0000E+00  0.4000E+01
    -46.252  0.0000E+00  0.4000E+01
    -46.221  0.0000E+00  0.4000E+01
    -46.191  0.0000E+00  0.4000E+01
    -46.161  0.0000E+00  0.4000E+01
    -46.131  0.0000E+00  0.4000E+01
    -46.100  0.0000E+00  0.4000E+01
    -46.070  0.0000E+00  0.4000E+01
    -46.040  0.0000E+00  0.4000E+01
    -46.010  0.0000E+00  0.4000E+01
    -45.979  0.0000E+00  0.4000E+01
    -45.949  0.0000E+00  0.4000E+01
    -45.919  0.0000E+00  0.4000E+01
    -45.889  0.0000E+00  0.4000E+01
    -45.859  0.0000E+00  0.4000E+01
    -45.828  0.0000E+00  0.4000E+01
    -45.798  0.0000E+00  0.4000E+01
    -45.768  0.0000E+00  0.4000E+01
    -45.738  0.0000E+00  0.4000E+01
    -45.707  0.0000E+00  0.4000E+01
    -45.677  0.0000E+00  0.4000E+01
    -45.647  0.0000E+00  0.4000E+01
    -45.617  0.0000E+00  0.4000E+01
    -45.586  0.0000E+00  0.4000E+01
    -45.556  0.0000E+00  0.4000E+01
    -45.526  0.0000E+00  0.4000E+01
    -45.496  0.0000E+00  0.4000E+01
    -45.465  0.0000E+00  0.4000E+01
    -45.435  0.0000E+00  0.4000E+01
    -45.405  0.0000E+00  0.4000E+01
    -45.375  0.0000E+00  0.4000E+01
    -45.344  0.0000E+00  0.4000E+01
    -45.314  0.0000E+00  0.4000E+01
    -45.284  0.0000E+00  0.4000E+01
    -45.254  0.0000E+00  0.4000E+01
    -45.223  0.0000E+00  0.4000E+01
    -45.193  0.0000E+00  0.4000E+01
    -45.163  0.0000E+00  0.4000E+01
    -45.133  0.0000E+00  0.4000E+01
    -45.102  0.0000E+00  0.4000E+01
    -45.072  0.0000E+00  0.4000E+01
    -45.042  0.0000E+00  0.4000E+01
    -45.012  0.0000E+00  0.4000E+01
    -44.981  0.0000E+00  0.4000E+01
    -44.951  0.0000E+00  0.4000E+01
    -44.921  0.0000E+00  0.4000E+01
    -44.891  0.0000E+00  0.4000E+01
    -44.860  0.0000E+00  0.4000E+01
    -44.830  0.0000E+00  0.4000E+01
    -44.800  0.0000E+00  0.4000E+01
    -44.770  0.0000E+00  0.4000E+01
    -44.739  0.0000E+00  0.4000E+01
    -44.709  0.0000E+00  0.4000E+01
    -44.679  0.0000E+00  0.4000E+01
    -44.649  0.0000E+00  0.4000E+01
    -44.618  0.0000E+00  0.4000E+01
    -44.588  0.0000E+00  0.4000E+01
    -44.558  0.0000E+00  0.4000E+01
    -44.528  0.0000E+00  0.4000E+01
    -44.497  0.0000E+00  0.4000E+01
    -44.467  0.0000E+00  0.4000E+01
    -44.437  0.0000E+00  0.4000E+01
    -44.407  0.0000E+00  0.4000E+01
    -44.376  0.0000E+00  0.4000E+01
    -44.346  0.0000E+00  0.4000E+01
    -44.316  0.0000E+00  0.4000E+01
    -44.286  0.0000E+00  0.4000E+01
    -44.255  0.0000E+00  0.4000E+01
    -44.225  0.0000E+00  0.4000E+01
    -44.195  0.0000E+00  0.4000E+01
    -44.165  0.0000E+00  0.4000E+01
    -44.134  0.0000E+00  0.4000E+01
    -44.104  0.0000E+00  0.4000E+01
    -44.074  0.0000E+00  0.4000E+01
    -44.044  0.0000E+00  0.4000E+01
    -44.013  0.0000E+00  0.4000E+01
    -43.983  0.0000E+00  0.4000E+01
    -43.953  0.0000E+00  0.4000E+01
    -43.923  0.0000E+00  0.4000E+01
    -43.892  0.0000E+00  0.4000E+01
    -43.862  0.0000E+00  0.4000E+01
    -43.832  0.0000E+00  0.4000E+01
    -43.802  0.0000E+00  0.4000E+01
    -43.771  0.0000E+00  0.4000E+01
    -43.741  0.0000E+00  0.4000E+01
    -43.711  0.0000E+00  0.4000E+01
    -43.681  0.0000E+00  0.4000E+01
    -43.650  0.0000E+00  0.4000E+01
    -43.620  0.0000E+00  0.4000E+01
    -43.590  0.0000E+00  0.4000E+01
    -43.560  0.0000E+00  0.4000E+01
    -43.529  0.0000E+00  0.4000E+01
    -43.499  0.0000E+00  0.4000E+01
    -43.469  0.0000E+00  0.4000E+01
    -43.439  0.0000E+00  0.4000E+01
    -43.408  0.0000E+00  0.4000E+01
    -43.378  0.0000E+00  0.4000E+01
    -43.348  0.0000E+00  0.4000E+01
    -43.318  0.0000E+00  0.4000E+01
    -43.287  0.0000E+00  0.4000E+01
    -43.257  0.0000E+00  0.4000E+01
    -43.227  0.0000E+00  0.4000E+01
    -43.197  0.0000E+00  0.4000E+01
    -43.166  0.0000E+00  0.4000E+01
    -43.136  0.0000E+00  0.4000E+01
    -43.106  0.0000E+00  0.4000E+01
    -43.076  0.0000E+00  0.4000E+01
    -43.045  0.0000E+00  0.4000E+01
    -43.015  0.0000E+00  0.4000E+01
    -42.985  0.0000E+00  0.4000E+01
    -42.955  0.0000E+00  0.4000E+01
    -42.924  0.0000E+00  0.4000E+01
    -42.894  0.0000E+00  0.4000E+01
    -42.864  0.0000E+00  0.4000E+01
    -42.834  0.0000E+00  0.4000E+01
    -42.804  0.0000E+00  0.4000E+01
    -42.773  0.0000E+00  0.4000E+01
    -42.743  0.0000E+00  0.4000E+01
    -42.713  0.0000E+00  0.4000E+01
    -42.683  0.0000E+00  0.4000E+01
    -42.652  0.0000E+00  0.4000E+01
    -42.622  0.0000E+00  0.4000E+01
    -42.592  0.0000E+00  0.4000E+01
    -42.562  0.0000E+00  0.4000E+01
    -42.531  0.0000E+00  0.4000E+01
    -42.501  0.0000E+00  0.4000E+01
    -42.471  0.0000E+00  0.4000E+01
    -42.441  0.0000E+00  0.4000E+01
    -42.410  0.0000E+00  0.4000E+01
    -42.380  0.0000E+00  0.4000E+01
    -42.350  0.0000E+00  0.4000E+01
    -42.320  0.0000E+00  0.4000E+01
    -42.289  0.0000E+00  0.4000E+01
    -42.259  0.0000E+00  0.4000E+01
    -42.229  0.0000E+00  0.4000E+01
    -42.199  0.0000E+00  0.4000E+01
    -42.168  0.0000E+00  0.4000E+01
    -42.138  0.0000E+00  0.4000E+01
    -42.108  0.0000E+00  0.4000E+01
    -42.078  0.0000E+00  0.4000E+01
    -42.047  0.0000E+00  0.4000E+01
    -42.017  0.0000E+00  0.4000E+01
    -41.987  0.0000E+00  0.4000E+01
    -41.957  0.0000E+00  0.4000E+01
    -41.926  0.0000E+00  0.4000E+01
    -41.896  0.0000E+00  0.4000E+01
    -41.866  0.0000E+00  0.4000E+01
    -41.836  0.0000E+00  0.4000E+01
    -41.805  0.0000E+00  0.4000E+01
    -41.775  0.0000E+00  0.4000E+01
    -41.745  0.0000E+00  0.4000E+01
    -41.715  0.0000E+00  0.4000E+01
    -41.684  0.0000E+00  0.4000E+01
    -41.654  0.0000E+00  0.4000E+01
    -41.624  0.0000E+00  0.4000E+01
    -41.594  0.0000E+00  0.4000E+01
    -41.563  0.0000E+00  0.4000E+01
    -41.533  0.0000E+00  0.4000E+01
    -41.503  0.0000E+00  0.4000E+01
    -41.473  0.0000E+00  0.4000E+01
    -41.442  0.0000E+00  0.4000E+01
    -41.412  0.0000E+00  0.4000E+01
    -41.382  0.0000E+00  0.4000E+01
    -41.352  0.0000E+00  0.4000E+01
    -41.321  0.0000E+00  0.4000E+01
    -41.291  0.0000E+00  0.4000E+01
    -41.261  0.0000E+00  0.4000E+01
    -41.231  0.0000E+00  0.4000E+01
    -41.200  0.0000E+00  0.4000E+01
    -41.170  0.0000E+00  0.4000E+01
    -41.140  0.0000E+00  0.4000E+01
    -41.110  0.0000E+00  0.4000E+01
    -41.079  0.0000E+00  0.4000E+01
    -41.049  0.0000E+00  0.4000E+01
    -41.019  0.0000E+00  0.4000E+01
    -40.989  0.0000E+00  0.4000E+01
    -40.958  0.0000E+00  0.4000E+01
    -40.928  0.0000E+00  0.4000E+01
    -40.898  0.0000E+00  0.4000E+01
    -40.868  0.0000E+00  0.4000E+01
    -40.837  0.0000E+00  0.4000E+01
    -40.807  0.0000E+00  0.4000E+01
    -40.777  0.0000E+00  0.4000E+01
    -40.747  0.0000E+00  0.4000E+01
    -40.716  0.0000E+00  0.4000E+01
    -40.686  0.0000E+00  0.4000E+01
    -40.656  0.0000E+00  0.4000E+01
    -40.626  0.0000E+00  0.4000E+01
    -40.595  0.0000E+00  0.4000E+01
    -40.565  0.0000E+00  0.4000E+01
    -40.535  0.0000E+00  0.4000E+01
    -40.505  0.0000E+00  0.4000E+01
    -40.474  0.0000E+00  0.4000E+01
    -40.444  0.0000E+00  0.4000E+01
    -40.414  0.0000E+00  0.4000E+01
    -40.384  0.0000E+00  0.4000E+01
    -40.353  0.0000E+00  0.4000E+01
    -40.323  0.0000E+00  0.4000E+01
    -40.293  0.0000E+00  0.4000E+01
    -40.263  0.0000E+00  0.4000E+01
    -40.232  0.0000E+00  0.4000E+01
    -40.202  0.0000E+00  0.4000E+01
    -40.172  0.0000E+00  0.4000E+01
    -40.142  0.0000E+00  0.4000E+01
    -40.111  0.0000E+00  0.4000E+01
    -40.081  0.0000E+00  0.4000E+01
    -40.051  0.0000E+00  0.4000E+01
    -40.021  0.0000E+00  0.4000E+01
    -39.990  0.0000E+00  0.4000E+01
    -39.960  0.0000E+00  0.4000E+01
    -39.930  0.0000E+00  0.4000E+01
    -39.900  0.0000E+00  0.4000E+01
    -39.870  0.0000E+00  0.4000E+01
    -39.839  0.0000E+00  0.4000E+01
    -39.809  0.0000E+00  0.4000E+01
    -39.779  0.0000E+00  0.4000E+01
    -39.749  0.0000E+00  0.4000E+01
    -39.718  0.0000E+00  0.4000E+01
    -39.688  0.0000E+00  0.4000E+01
    -39.658  0.0000E+00  0.4000E+01
    -39.628  0.0000E+00  0.4000E+01
    -39.597  0.0000E+00  0.4000E+01
    -39.567  0.0000E+00  0.4000E+01
    -39.537  0.0000E+00  0.4000E+01
    -39.507  0.0000E+00  0.4000E+01
    -39.476  0.0000E+00  0.4000E+01
    -39.446  0.0000E+00  0.4000E+01
    -39.416  0.0000E+00  0.4000E+01
    -39.386  0.0000E+00  0.4000E+01
    -39.355  0.0000E+00  0.4000E+01
    -39.325  0.0000E+00  0.4000E+01
    -39.295  0.0000E+00  0.4000E+01
    -39.265  0.0000E+00  0.4000E+01
    -39.234  0.0000E+00  0.4000E+01
    -39.204  0.0000E+00  0.4000E+01
    -39.174  0.0000E+00  0.4000E+01
    -39.144  0.0000E+00  0.4000E+01
    -39.113  0.0000E+00  0.4000E+01
    -39.083  0.0000E+00  0.4000E+01
    -39.053  0.0000E+00  0.4000E+01
    -39.023  0.0000E+00  0.4000E+01
    -38.992  0.0000E+00  0.4000E+01
    -38.962  0.0000E+00  0.4000E+01
    -38.932  0.0000E+00  0.4000E+01
    -38.902  0.0000E+00  0.4000E+01
    -38.871  0.0000E+00  0.4000E+01
    -38.841  0.0000E+00  0.4000E+01
    -38.811  0.0000E+00  0.4000E+01
    -38.781  0.0000E+00  0.4000E+01
    -38.750  0.0000E+00  0.4000E+01
    -38.720  0.0000E+00  0.4000E+01
    -38.690  0.0000E+00  0.4000E+01
    -38.660  0.0000E+00  0.4000E+01
    -38.629  0.0000E+00  0.4000E+01
    -38.599  0.0000E+00  0.4000E+01
    -38.569  0.0000E+00  0.4000E+01
    -38.539  0.0000E+00  0.4000E+01
    -38.508  0.0000E+00  0.4000E+01
    -38.478  0.0000E+00  0.4000E+01
    -38.448  0.0000E+00  0.4000E+01
    -38.418  0.0000E+00  0.4000E+01
    -38.387  0.0000E+00  0.4000E+01
    -38.357  0.0000E+00  0.4000E+01
    -38.327  0.0000E+00  0.4000E+01
    -38.297  0.0000E+00  0.4000E+01
    -38.266  0.0000E+00  0.4000E+01
    -38.236  0.0000E+00  0.4000E+01
    -38.206  0.0000E+00  0.4000E+01
    -38.176  0.0000E+00  0.4000E+01
    -38.145  0.0000E+00  0.4000E+01
    -38.115  0.0000E+00  0.4000E+01
    -38.085  0.0000E+00  0.4000E+01
    -38.055  0.0000E+00  0.4000E+01
    -38.024  0.0000E+00  0.4000E+01
    -37.994  0.0000E+00  0.4000E+01
    -37.964  0.0000E+00  0.4000E+01
    -37.934  0.0000E+00  0.4000E+01
    -37.903  0.0000E+00  0.4000E+01
    -37.873  0.0000E+00  0.4000E+01
    -37.843  0.0000E+00  0.4000E+01
    -37.813  0.0000E+00  0.4000E+01
    -37.782  0.0000E+00  0.4000E+01
    -37.752  0.0000E+00  0.4000E+01
    -37.722  0.0000E+00  0.4000E+01
    -37.692  0.0000E+00  0.4000E+01
    -37.661  0.0000E+00  0.4000E+01
    -37.631  0.0000E+00  0.4000E+01
    -37.601  0.0000E+00  0.4000E+01
    -37.571  0.0000E+00  0.4000E+01
    -37.540  0.0000E+00  0.4000E+01
    -37.510  0.0000E+00  0.4000E+01
    -37.480  0.0000E+00  0.4000E+01
    -37.450  0.0000E+00  0.4000E+01
    -37.419  0.0000E+00  0.4000E+01
    -37.389  0.0000E+00  0.4000E+01
    -37.359  0.0000E+00  0.4000E+01
    -37.329  0.0000E+00  0.4000E+01
    -37.298  0.0000E+00  0.4000E+01
    -37.268  0.0000E+00  0.4000E+01
    -37.238  0.0000E+00  0.4000E+01
    -37.208  0.0000E+00  0.4000E+01
    -37.177  0.0000E+00  0.4000E+01
    -37.147  0.0000E+00  0.4000E+01
    -37.117  0.0000E+00  0.4000E+01
    -37.087  0.0000E+00  0.4000E+01
    -37.056  0.0000E+00  0.4000E+01
    -37.026  0.0000E+00  0.4000E+01
    -36.996  0.0000E+00  0.4000E+01
    -36.966  0.0000E+00  0.4000E+01
    -36.935  0.0000E+00  0.4000E+01
    -36.905  0.0000E+00  0.4000E+01
    -36.875  0.0000E+00  0.4000E+01
    -36.845  0.0000E+00  0.4000E+01
    -36.815  0.0000E+00  0.4000E+01
    -36.784  0.0000E+00  0.4000E+01
    -36.754  0.0000E+00  0.4000E+01
    -36.724  0.0000E+00  0.4000E+01
    -36.694  0.0000E+00  0.4000E+01
    -36.663  0.0000E+00  0.4000E+01
    -36.633  0.0000E+00  0.4000E+01
    -36.603  0.0000E+00  0.4000E+01
    -36.573  0.0000E+00  0.4000E+01
    -36.542  0.0000E+00  0.4000E+01
    -36.512  0.0000E+00  0.4000E+01
    -36.482  0.0000E+00  0.4000E+01
    -36.452  0.0000E+00  0.4000E+01
    -36.421  0.0000E+00  0.4000E+01
    -36.391  0.0000E+00  0.4000E+01
    -36.361  0.0000E+00  0.4000E+01
    -36.331  0.0000E+00  0.4000E+01
    -36.300  0.0000E+00  0.4000E+01
    -36.270  0.0000E+00  0.4000E+01
    -36.240  0.0000E+00  0.4000E+01
    -36.210  0.0000E+00  0.4000E+01
    -36.179  0.0000E+00  0.4000E+01
    -36.149  0.0000E+00  0.4000E+01
    -36.119  0.0000E+00  0.4000E+01
    -36.089  0.0000E+00  0.4000E+01
    -36.058  0.0000E+00  0.4000E+01
    -36.028  0.0000E+00  0.4000E+01
    -35.998  0.0000E+00  0.4000E+01
    -35.968  0.0000E+00  0.4000E+01
    -35.937  0.0000E+00  0.4000E+01
    -35.907  0.0000E+00  0.4000E+01
    -35.877  0.0000E+00  0.4000E+01
    -35.847  0.0000E+00  0.4000E+01
    -35.816  0.0000E+00  0.4000E+01
    -35.786  0.0000E+00  0.4000E+01
    -35.756  0.0000E+00  0.4000E+01
    -35.726  0.0000E+00  0.4000E+01
    -35.695  0.0000E+00  0.4000E+01
    -35.665  0.0000E+00  0.4000E+01
    -35.635  0.0000E+00  0.4000E+01
    -35.605  0.0000E+00  0.4000E+01
    -35.574  0.0000E+00  0.4000E+01
    -35.544  0.0000E+00  0.4000E+01
    -35.514  0.0000E+00  0.4000E+01
    -35.484  0.0000E+00  0.4000E+01
    -35.453  0.0000E+00  0.4000E+01
    -35.423  0.0000E+00  0.4000E+01
    -35.393  0.0000E+00  0.4000E+01
    -35.363  0.0000E+00  0.4000E+01
    -35.332  0.0000E+00  0.4000E+01
    -35.302  0.0000E+00  0.4000E+01
    -35.272  0.0000E+00  0.4000E+01
    -35.242  0.0000E+00  0.4000E+01
    -35.211  0.0000E+00  0.4000E+01
    -35.181  0.0000E+00  0.4000E+01
    -35.151  0.0000E+00  0.4000E+01
    -35.121  0.0000E+00  0.4000E+01
    -35.090  0.0000E+00  0.4000E+01
    -35.060  0.0000E+00  0.4000E+01
    -35.030  0.0000E+00  0.4000E+01
    -35.000  0.0000E+00  0.4000E+01
    -34.969  0.0000E+00  0.4000E+01
    -34.939  0.0000E+00  0.4000E+01
    -34.909  0.0000E+00  0.4000E+01
    -34.879  0.0000E+00  0.4000E+01