   6   6   0   0
  0.2185851E+02  0.3190316E-09  0.3190315E-09  0.1487900E-08  0.5000000E-15
  1.000000000000000E-004
  CAR 
 2H-MoS2                                 
     12.58165948    -58.72030354  301      5.98622790      1.00000000
    -58.720  0.0000E+00  0.0000E+00
    -58.483  0.0000E+00  0.0000E+00
    -58.245  0.0000E+00  0.0000E+00
    -58.007  0.0000E+00  0.0000E+00
    -57.770  0.0000E+00  0.0000E+00
    -57.532  0.0000E+00  0.0000E+00
    -57.294  0.0000E+00  0.0000E+00
    -57.057  0.0000E+00  0.0000E+00
    -56.819  0.0000E+00  0.0000E+00
    -56.581  0.0000E+00  0.0000E+00
    -56.344  0.0000E+00  0.0000E+00
    -56.106  0.0000E+00  0.0000E+00
    -55.868  0.0000E+00  0.0000E+00
    -55.631  0.1358E-07  0.3227E-08
    -55.393  0.1582E-01  0.3761E-02
    -55.155  0.1007E-02  0.4000E-02
    -54.918  0.0000E+00  0.4000E-02
    -54.680  0.0000E+00  0.4000E-02
    -54.442  0.0000E+00  0.4000E-02
    -54.205  0.0000E+00  0.4000E-02
    -53.967  0.0000E+00  0.4000E-02
    -53.729  0.0000E+00  0.4000E-02
    -53.491  0.0000E+00  0.4000E-02
    -53.254  0.0000E+00  0.4000E-02
    -53.016  0.0000E+00  0.4000E-02
    -52.778  0.0000E+00  0.4000E-02
    -52.541  0.0000E+00  0.4000E-02
    -52.303  0.0000E+00  0.4000E-02
    -52.065  0.0000E+00  0.4000E-02
    -51.828  0.0000E+00  0.4000E-02
    -51.590  0.0000E+00  0.4000E-02
    -51.352  0.0000E+00  0.4000E-02
    -51.115  0.0000E+00  0.4000E-02
    -50.877  0.0000E+00  0.4000E-02
    -50.639  0.0000E+00  0.4000E-02
    -50.402  0.0000E+00  0.4000E-02
    -50.164  0.0000E+00  0.4000E-02
    -49.926  0.0000E+00  0.4000E-02
    -49.689  0.0000E+00  0.4000E-02
    -49.451  0.0000E+00  0.4000E-02
    -49.213  0.0000E+00  0.4000E-02
    -48.976  0.0000E+00  0.4000E-02
    -48.738  0.0000E+00  0.4000E-02
    -48.500  0.0000E+00  0.4000E-02
    -48.263  0.0000E+00  0.4000E-02
    -48.025  0.0000E+00  0.4000E-02
    -47.787  0.0000E+00  0.4000E-02
    -47.550  0.0000E+00  0.4000E-02
    -47.312  0.0000E+00  0.4000E-02
    -47.074  0.0000E+00  0.4000E-02
    -46.837  0.0000E+00  0.4000E-02
    -46.599  0.0000E+00  0.4000E-02
    -46.361  0.0000E+00  0.4000E-02
    -46.124  0.0000E+00  0.4000E-02
    -45.886  0.0000E+00  0.4000E-02
    -45.648  0.0000E+00  0.4000E-02
    -45.411  0.0000E+00  0.4000E-02
    -45.173  0.0000E+00  0.4000E-02
    -44.935  0.0000E+00  0.4000E-02
    -44.698  0.0000E+00  0.4000E-02
    -44.460  0.0000E+00  0.4000E-02
    -44.222  0.0000E+00  0.4000E-02
    -43.985  0.0000E+00  0.4000E-02
    -43.747  0.0000E+00  0.4000E-02
    -43.509  0.0000E+00  0.4000E-02
    -43.272  0.0000E+00  0.4000E-02
    -43.034  0.0000E+00  0.4000E-02
    -42.796  0.0000E+00  0.4000E-02
    -42.559  0.0000E+00  0.4000E-02
    -42.321  0.0000E+00  0.4000E-02
    -42.083  0.0000E+00  0.4000E-02
    -41.846  0.0000E+00  0.4000E-02
    -41.608  0.0000E+00  0.4000E-02
    -41.370  0.0000E+00  0.4000E-02
    -41.132  0.0000E+00  0.4000E-02
    -40.895  0.0000E+00  0.4000E-02
    -40.657  0.0000E+00  0.4000E-02
    -40.419  0.0000E+00  0.4000E-02
    -40.182  0.0000E+00  0.4000E-02
    -39.944  0.0000E+00  0.4000E-02
    -39.706  0.0000E+00  0.4000E-02
    -39.469  0.0000E+00  0.4000E-02
    -39.231  0.0000E+00  0.4000E-02
    -38.993  0.0000E+00  0.4000E-02
    -38.756  0.0000E+00  0.4000E-02
    -38.518  0.0000E+00  0.4000E-02
    -38.280  0.0000E+00  0.4000E-02
    -38.043  0.0000E+00  0.4000E-02
    -37.805  0.0000E+00  0.4000E-02
    -37.567  0.0000E+00  0.4000E-02
    -37.330  0.0000E+00  0.4000E-02
    -37.092  0.0000E+00  0.4000E-02
    -36.854  0.0000E+00  0.4000E-02
    -36.617  0.0000E+00  0.4000E-02
    -36.379  0.0000E+00  0.4000E-02
    -36.141  0.0000E+00  0.4000E-02
    -35.904  0.0000E+00  0.4000E-02
    -35.666  0.0000E+00  0.4000E-02
    -35.428  0.0000E+00  0.4000E-02
    -35.191  0.0000E+00  0.4000E-02
    -34.953  0.0000E+00  0.4000E-02
    -34.715  0.0000E+00  0.4000E-02
    -34.478  0.0000E+00  0.4000E-02
    -34.240  0.0000E+00  0.4000E-02
    -34.002  0.0000E+00  0.4000E-02
    -33.765  0.0000E+00  0.4000E-02
    -33.527  0.0000E+00  0.4000E-02
    -33.289  0.0000E+00  0.4000E-02
    -33.052  0.0000E+00  0.4000E-02
    -32.814  0.0000E+00  0.4000E-02
    -32.576  0.0000E+00  0.4000E-02
    -32.339  0.0000E+00  0.4000E-02
    -32.101  0.0000E+00  0.4000E-02
    -31.863  0.0000E+00  0.4000E-02
    -31.626  0.0000E+00  0.4000E-02
    -31.388  0.0000E+00  0.4000E-02
    -31.150  0.0000E+00  0.4000E-02
    -30.913  0.0000E+00  0.4000E-02
    -30.675  0.0000E+00  0.4000E-02
    -30.437  0.0000E+00  0.4000E-02
    -30.200  0.0000E+00  0.4000E-02
    -29.962  0.9584E-12  0.4000E-02
    -29.724  0.5377E-02  0.5278E-02
    -29.486  0.3555E-01  0.1373E-01
    -29.249  0.9565E-02  0.1600E-01
    -29.011  0.9071E-08  0.1600E-01
    -28.773  0.0000E+00  0.1600E-01
    -28.536  0.0000E+00  0.1600E-01
    -28.298  0.0000E+00  0.1600E-01
    -28.060  0.0000E+00  0.1600E-01
    -27.823  0.0000E+00  0.1600E-01
    -27.585  0.0000E+00  0.1600E-01
    -27.347  0.0000E+00  0.1600E-01
    -27.110  0.0000E+00  0.1600E-01
    -26.872  0.0000E+00  0.1600E-01
    -26.634  0.0000E+00  0.1600E-01
    -26.397  0.0000E+00  0.1600E-01
    -26.159  0.0000E+00  0.1600E-01
    -25.921  0.0000E+00  0.1600E-01
    -25.684  0.0000E+00  0.1600E-01
    -25.446  0.0000E+00  0.1600E-01
    -25.208  0.0000E+00  0.1600E-01
    -24.971  0.0000E+00  0.1600E-01
    -24.733  0.0000E+00  0.1600E-01
    -24.495  0.0000E+00  0.1600E-01
    -24.258  0.0000E+00  0.1600E-01
    -24.020  0.0000E+00  0.1600E-01
    -23.782  0.0000E+00  0.1600E-01
    -23.545  0.0000E+00  0.1600E-01
    -23.307  0.0000E+00  0.1600E-01
    -23.069  0.0000E+00  0.1600E-01
    -22.832  0.0000E+00  0.1600E-01
    -22.594  0.0000E+00  0.1600E-01
    -22.356  0.0000E+00  0.1600E-01
    -22.119  0.0000E+00  0.1600E-01
    -21.881  0.0000E+00  0.1600E-01
    -21.643  0.0000E+00  0.1600E-01
    -21.406  0.0000E+00  0.1600E-01
    -21.168  0.0000E+00  0.1600E-01
    -20.930  0.0000E+00  0.1600E-01
    -20.693  0.0000E+00  0.1600E-01
    -20.455  0.0000E+00  0.1600E-01
    -20.217  0.0000E+00  0.1600E-01
    -19.980  0.0000E+00  0.1600E-01
    -19.742  0.0000E+00  0.1600E-01
    -19.504  0.0000E+00  0.1600E-01
    -19.267  0.0000E+00  0.1600E-01
    -19.029  0.0000E+00  0.1600E-01
    -18.791  0.0000E+00  0.1600E-01
    -18.554  0.0000E+00  0.1600E-01
    -18.316  0.0000E+00  0.1600E-01
    -18.078  0.0000E+00  0.1600E-01
    -17.841  0.0000E+00  0.1600E-01
    -17.603  0.0000E+00  0.1600E-01
    -17.365  0.0000E+00  0.1600E-01
    -17.127  0.0000E+00  0.1600E-01
    -16.890  0.0000E+00  0.1600E-01
    -16.652  0.0000E+00  0.1600E-01
    -16.414  0.0000E+00  0.1600E-01
    -16.177  0.0000E+00  0.1600E-01
    -15.939  0.0000E+00  0.1600E-01
    -15.701  0.0000E+00  0.1600E-01
    -15.464  0.0000E+00  0.1600E-01
    -15.226  0.0000E+00  0.1600E-01
    -14.988  0.0000E+00  0.1600E-01
    -14.751  0.0000E+00  0.1600E-01
    -14.513  0.0000E+00  0.1600E-01
    -14.275  0.0000E+00  0.1600E-01
    -14.038  0.0000E+00  0.1600E-01
    -13.800  0.0000E+00  0.1600E-01
    -13.562  0.0000E+00  0.1600E-01
    -13.325  0.0000E+00  0.1600E-01
    -13.087  0.0000E+00  0.1600E-01
    -12.849  0.0000E+00  0.1600E-01
    -12.612  0.0000E+00  0.1600E-01
    -12.374  0.0000E+00  0.1600E-01
    -12.136  0.0000E+00  0.1600E-01
    -11.899  0.0000E+00  0.1600E-01
    -11.661  0.0000E+00  0.1600E-01
    -11.423  0.0000E+00  0.1600E-01
    -11.186  0.0000E+00  0.1600E-01
    -10.948  0.0000E+00  0.1600E-01
    -10.710  0.0000E+00  0.1600E-01
    -10.473  0.0000E+00  0.1600E-01
    -10.235  0.0000E+00  0.1600E-01
     -9.997  0.0000E+00  0.1600E-01
     -9.760  0.0000E+00  0.1600E-01
     -9.522  0.0000E+00  0.1600E-01
     -9.284  0.0000E+00  0.1600E-01
     -9.047  0.0000E+00  0.1600E-01
     -8.809  0.6515E-06  0.1600E-01
     -8.571  0.6706E-03  0.1616E-01
     -8.334  0.1960E-05  0.1616E-01
     -8.096  0.3216E-02  0.1692E-01
     -7.858  0.8232E-03  0.1712E-01
     -7.621  0.3170E-10  0.1712E-01
     -7.383  0.3883E-03  0.1721E-01
     -7.145  0.6833E-02  0.1884E-01
     -6.908  0.5591E-02  0.2017E-01
     -6.670  0.8929E-02  0.2229E-01
     -6.432  0.7199E-02  0.2400E-01
     -6.195  0.6475E-05  0.2400E-01
     -5.957  0.0000E+00  0.2400E-01
     -5.719  0.0000E+00  0.2400E-01
     -5.482  0.0000E+00  0.2400E-01
     -5.244  0.0000E+00  0.2400E-01
     -5.006  0.0000E+00  0.2400E-01
     -4.768  0.0000E+00  0.2400E-01
     -4.531  0.0000E+00  0.2400E-01
     -4.293  0.0000E+00  0.2400E-01
     -4.055  0.0000E+00  0.2400E-01
     -3.818  0.0000E+00  0.2400E-01
     -3.580  0.0000E+00  0.2400E-01
     -3.342  0.0000E+00  0.2400E-01
     -3.105  0.0000E+00  0.2400E-01
     -2.867  0.0000E+00  0.2400E-01
     -2.629  0.0000E+00  0.2400E-01
     -2.392  0.0000E+00  0.2400E-01
     -2.154  0.0000E+00  0.2400E-01
     -1.916  0.0000E+00  0.2400E-01
     -1.679  0.0000E+00  0.2400E-01
     -1.441  0.0000E+00  0.2400E-01
     -1.203  0.0000E+00  0.2400E-01
     -0.966  0.0000E+00  0.2400E-01
     -0.728  0.0000E+00  0.2400E-01
     -0.490  0.2345E-06  0.2400E-01
     -0.253  0.3163E-03  0.2408E-01
     -0.015  0.4330E-02  0.2510E-01
      0.223  0.5726E-02  0.2647E-01
      0.460  0.9538E-02  0.2873E-01
      0.698  0.9604E-03  0.2896E-01
      0.936  0.3914E-02  0.2989E-01
      1.173  0.1042E-02  0.3014E-01
      1.411  0.5025E-02  0.3133E-01
      1.649  0.7426E-02  0.3310E-01
      1.886  0.6404E-02  0.3462E-01
      2.124  0.3518E-02  0.3546E-01
      2.362  0.8943E-02  0.3758E-01
      2.599  0.4184E-02  0.3858E-01
      2.837  0.4973E-02  0.3976E-01
      3.075  0.3693E-03  0.3985E-01
      3.312  0.8378E-02  0.4184E-01
      3.550  0.8827E-02  0.4393E-01
      3.788  0.3427E-02  0.4475E-01
      4.025  0.1565E-02  0.4512E-01
      4.263  0.6782E-02  0.4673E-01
      4.501  0.5836E-02  0.4812E-01
      4.738  0.7568E-02  0.4992E-01
      4.976  0.2139E-02  0.5043E-01
      5.214  0.5854E-02  0.5182E-01
      5.451  0.4093E-03  0.5192E-01
      5.689  0.2062E-03  0.5196E-01
      5.927  0.1482E-03  0.5200E-01
      6.164  0.0000E+00  0.5200E-01
      6.402  0.0000E+00  0.5200E-01
      6.640  0.0000E+00  0.5200E-01
      6.878  0.0000E+00  0.5200E-01
      7.115  0.1448E-04  0.5200E-01
      7.353  0.1936E-02  0.5246E-01
      7.591  0.8278E-02  0.5443E-01
      7.828  0.5921E-02  0.5584E-01
      8.066  0.1260E-01  0.5883E-01
      8.304  0.6720E-02  0.6043E-01
      8.541  0.4712E-02  0.6155E-01
      8.779  0.4686E-02  0.6266E-01
      9.017  0.2988E-02  0.6337E-01
      9.254  0.1513E-02  0.6373E-01
      9.492  0.1119E-02  0.6400E-01
      9.730  0.3810E-08  0.6400E-01
      9.967  0.0000E+00  0.6400E-01
     10.205  0.0000E+00  0.6400E-01
     10.443  0.0000E+00  0.6400E-01
     10.680  0.0000E+00  0.6400E-01
     10.918  0.0000E+00  0.6400E-01
     11.156  0.0000E+00  0.6400E-01
     11.393  0.0000E+00  0.6400E-01
     11.631  0.0000E+00  0.6400E-01
     11.869  0.0000E+00  0.6400E-01
     12.106  0.0000E+00  0.6400E-01
     12.344  0.0000E+00  0.6400E-01
     12.582  0.0000E+00  0.6400E-01
