 vasp.5.4.4.18Apr17-6-g9f103f2a35 (build Nov 26 2018 16:29:41) complex          
  
 executed on             LinuxIFC date 2019.07.02  14:04:28
 running on   16 total cores
 distrk:  each k-point on   16 cores,    1 groups
 distr:  one band on NCORES_PER_BAND=   8 cores,    2 groups


--------------------------------------------------------------------------------------------------------


 INCAR:
 POTCAR:    PAW_PBE Mo_sv_GW 05Dec2013            
 POTCAR:    PAW_PBE S_GW 19Mar2012                
 POTCAR:    PAW_PBE Mo_sv_GW 05Dec2013            
  local pseudopotential read in
  partial core-charges read in
  partial kinetic energy density read in
  kinetic energy density of atom read in
  atomic valenz-charges read in
  non local Contribution for L=           0  read in
    real space projection operators read in
  non local Contribution for L=           0  read in
    real space projection operators read in
  non local Contribution for L=           0  read in
    real space projection operators read in
  non local Contribution for L=           1  read in
    real space projection operators read in
  non local Contribution for L=           1  read in
    real space projection operators read in
  non local Contribution for L=           1  read in
    real space projection operators read in
  non local Contribution for L=           2  read in
    real space projection operators read in
  non local Contribution for L=           2  read in
    real space projection operators read in
  non local Contribution for L=           2  read in
    real space projection operators read in
  non local Contribution for L=           3  read in
    real space projection operators read in
  non local Contribution for L=           3  read in
    real space projection operators read in
    PAW grid and wavefunctions read in
 
   number of l-projection  operators is LMAX  =          11
   number of lm-projection operators is LMMAX =          41
 
 POTCAR:    PAW_PBE S_GW 19Mar2012                
  local pseudopotential read in
  partial core-charges read in
  partial kinetic energy density read in
  kinetic energy density of atom read in
  atomic valenz-charges read in
  non local Contribution for L=           0  read in
    real space projection operators read in
  non local Contribution for L=           0  read in
    real space projection operators read in
  non local Contribution for L=           1  read in
    real space projection operators read in
  non local Contribution for L=           1  read in
    real space projection operators read in
  non local Contribution for L=           2  read in
    real space projection operators read in
  non local Contribution for L=           2  read in
    real space projection operators read in
    PAW grid and wavefunctions read in
 
   number of l-projection  operators is LMAX  =           6
   number of lm-projection operators is LMMAX =          18
 
  PAW_PBE Mo_sv_GW 05Dec2013            :
 energy of atom  1       EATOM=-1861.5185
 kinetic energy error for atom=    0.1105 (will be added to EATOM!!)
  PAW_PBE S_GW 19Mar2012                :
 energy of atom  2       EATOM= -276.8230
 kinetic energy error for atom=    0.0058 (will be added to EATOM!!)
 
 
 POSCAR: MoS2 (bulk, 2 f.u.)                     
  positions in direct lattice
  No initial velocities read in
 exchange correlation table for  LEXCH =        8
   RHO(1)=    0.500       N(1)  =     2000
   RHO(2)=  100.500       N(2)  =     4000
 


--------------------------------------------------------------------------------------------------------


 ion  position               nearest neighbor table
   1  0.667  0.333  0.250-   3 2.42   5 2.42   3 2.42   5 2.42   3 2.42   5 2.42
   2  0.333  0.667  0.750-   4 2.42   6 2.42   4 2.42   6 2.42   4 2.42   6 2.42
   3  0.333  0.667  0.145-   1 2.42   1 2.42   1 2.42
   4  0.667  0.333  0.645-   2 2.42   2 2.42   2 2.42
   5  0.333  0.667  0.355-   1 2.42   1 2.42   1 2.42
   6  0.667  0.333  0.855-   2 2.42   2 2.42   2 2.42
 
  LATTYP: Found a hexagonal cell.
 ALAT       =     3.1903153920
 C/A-ratio  =     4.6638034714
  
  Lattice vectors:
  
 A1 = (   3.1903160000,   0.0000000000,   0.0000000000)
 A2 = (  -1.5951580000,   2.7628940000,   0.0000000000)
 A3 = (   0.0000000000,   0.0000000000,  14.8790040000)


Analysis of symmetry for initial positions (statically):
=====================================================================
 Subroutine PRICEL returns:
 Original cell was already a primitive cell.
 

 Routine SETGRP: Setting up the symmetry group for a 
 hexagonal supercell.


 Subroutine GETGRP returns: Found 24 space group operations
 (whereof 12 operations were pure point group operations)
 out of a pool of 24 trial point group operations.


The static configuration has the point symmetry D_3d.
 The point group associated with its full space group is D_6h.


Analysis of symmetry for dynamics (positions and initial velocities):
=====================================================================
 Subroutine PRICEL returns:
 Original cell was already a primitive cell.
 

 Routine SETGRP: Setting up the symmetry group for a 
 hexagonal supercell.


 Subroutine GETGRP returns: Found 24 space group operations
 (whereof 12 operations were pure point group operations)
 out of a pool of 24 trial point group operations.


The dynamic configuration has the point symmetry D_3d.
 The point group associated with its full space group is D_6h.


 Subroutine INISYM returns: Found 24 space group operations
 (whereof 12 operations are pure point group operations),
 and found     1 'primitive' translations

 
 
 KPOINTS: MoS2 kpoints                            

Automatic generation of k-mesh.
Space group operators:
 irot       det(A)        alpha          n_x          n_y          n_z        tau_x        tau_y        tau_z
    1     1.000000     0.000000     1.000000     0.000000     0.000000     0.000000     0.000000     0.000000
    2    -1.000000     0.000000     1.000000     0.000000     0.000000     0.000000     0.000000     0.000000
    3     1.000000   120.000000     0.000000     0.000000    -1.000000     0.000000     0.000000     0.000000
    4    -1.000000   120.000000     0.000000     0.000000    -1.000000     0.000000     0.000000     0.000000
    5     1.000000   120.000000     0.000000     0.000000     1.000000     0.000000     0.000000     0.000000
    6    -1.000000   120.000000     0.000000     0.000000     1.000000     0.000000     0.000000     0.000000
    7     1.000000   180.000000     1.000000     0.000000     0.000000     0.000000     0.000000     0.000000
    8    -1.000000   180.000000     1.000000     0.000000     0.000000     0.000000     0.000000     0.000000
    9     1.000000   180.000000     0.500000    -0.866025     0.000000     0.000000     0.000000     0.000000
   10    -1.000000   180.000000     0.500000    -0.866025     0.000000     0.000000     0.000000     0.000000
   11     1.000000   180.000000    -0.500000    -0.866025     0.000000     0.000000     0.000000     0.000000
   12    -1.000000   180.000000    -0.500000    -0.866025     0.000000     0.000000     0.000000     0.000000
   13     1.000000    60.000000     0.000000     0.000000    -1.000000     0.000001     0.000000     0.500000
   14    -1.000000    60.000000     0.000000     0.000000    -1.000000     0.000001     0.000000     0.500000
   15     1.000000   180.000000     0.000000     0.000000     1.000000     0.000000     0.000000     0.500000
   16    -1.000000   180.000000     0.000000     0.000000     1.000000     0.000000     0.000000     0.500000
   17     1.000000    60.000000     0.000000     0.000000     1.000000     0.000000     0.000000     0.500000
   18    -1.000000    60.000000     0.000000     0.000000     1.000000     0.000000     0.000000     0.500000
   19     1.000000   180.000000     0.866025    -0.500000     0.000000     0.000000     0.000000     0.500000
   20    -1.000000   180.000000     0.866025    -0.500000     0.000000     0.000000     0.000000     0.500000
   21     1.000000   180.000000     0.000000     1.000000     0.000000     0.000001     0.000000     0.500000
   22    -1.000000   180.000000     0.000000     1.000000     0.000000     0.000001     0.000000     0.500000
   23     1.000000   180.000000     0.866025     0.500000     0.000000     0.000000     0.000000     0.500000
   24    -1.000000   180.000000     0.866025     0.500000     0.000000     0.000000     0.000000     0.500000
 
 Subroutine IBZKPT returns following result:
 ===========================================
 
 Found     15 irreducible k-points:
 
 Following reciprocal coordinates:
            Coordinates               Weight
  0.000000  0.000000  0.000000      1.000000
  0.200000  0.000000  0.000000      6.000000
  0.400000  0.000000  0.000000      6.000000
  0.200000  0.200000  0.000000      6.000000
  0.400000  0.200000  0.000000      6.000000
  0.000000  0.000000  0.200000      2.000000
  0.200000  0.000000  0.200000     12.000000
  0.400000  0.000000  0.200000     12.000000
  0.200000  0.200000  0.200000     12.000000
  0.400000  0.200000  0.200000     12.000000
  0.000000  0.000000  0.400000      2.000000
  0.200000  0.000000  0.400000     12.000000
  0.400000  0.000000  0.400000     12.000000
  0.200000  0.200000  0.400000     12.000000
  0.400000  0.200000  0.400000     12.000000
 
 Following cartesian coordinates:
            Coordinates               Weight
  0.000000  0.000000  0.000000      1.000000
  0.062690  0.036194  0.000000      6.000000
  0.125379  0.072388  0.000000      6.000000
  0.062690  0.108582  0.000000      6.000000
  0.125379  0.144776  0.000000      6.000000
  0.000000  0.000000  0.013442      2.000000
  0.062690  0.036194  0.013442     12.000000
  0.125379  0.072388  0.013442     12.000000
  0.062690  0.108582  0.013442     12.000000
  0.125379  0.144776  0.013442     12.000000
  0.000000  0.000000  0.026884      2.000000
  0.062690  0.036194  0.026884     12.000000
  0.125379  0.072388  0.026884     12.000000
  0.062690  0.108582  0.026884     12.000000
  0.125379  0.144776  0.026884     12.000000
 


--------------------------------------------------------------------------------------------------------




 Dimension of arrays:
   k-points           NKPTS =     15   k-points in BZ     NKDIM =     15   number of bands    NBANDS=     32
   number of dos      NEDOS =    301   number of ions     NIONS =      6
   non local maximal  LDIM  =     11   non local SUM 2l+1 LMDIM =     41
   total plane-waves  NPLWV =  36000
   max r-space proj   IRMAX =      1   max aug-charges    IRDMAX=  84017
   dimension x,y,z NGX =    20 NGY =   20 NGZ =   90
   dimension x,y,z NGXF=    40 NGYF=   40 NGZF=  180
   support grid    NGXF=    80 NGYF=   80 NGZF=  360
   ions per type =               2   4
   NGX,Y,Z   is equivalent  to a cutoff of  10.42, 10.42, 10.06 a.u.
   NGXF,Y,Z  is equivalent  to a cutoff of  20.84, 20.84, 20.11 a.u.

 SYSTEM =  2H-MoS2                                 
 POSCAR =  MoS2 (bulk, 2 f.u.)                     

 Startparameter for this run:
   NWRITE =      1    write-flag & timer
   PREC   = accura    normal or accurate (medium, high low for compatibility)
   ISTART =      0    job   : 0-new  1-cont  2-samecut
   ICHARG =      2    charge: 1-file 2-atom 10-const
   ISPIN  =      1    spin polarized calculation?
   LNONCOLLINEAR =      F non collinear calculations
   LSORBIT =      F    spin-orbit coupling
   INIWAV =      1    electr: 0-lowe 1-rand  2-diag
   LASPH  =      F    aspherical Exc in radial PAW
   METAGGA=      F    non-selfconsistent MetaGGA calc.

 Electronic Relaxation 1
   ENCUT  =  344.9 eV  25.35 Ry    5.03 a.u.   4.83  4.83 22.53*2*pi/ulx,y,z
   ENINI  =  344.9     initial cutoff
   ENAUG  =  964.7 eV  augmentation charge cutoff
   NELM   =     60;   NELMIN=  2; NELMDL= -5     # of ELM steps 
   EDIFF  = 0.1E-04   stopping-criterion for ELM
   LREAL  =      F    real-space projection
   NLSPLINE    = F    spline interpolate recip. space projectors
   LCOMPAT=      F    compatible to vasp.4.4
   GGA_COMPAT  = T    GGA compatible to vasp.4.4-vasp.4.6
   LMAXPAW     = -100 max onsite density
   LMAXMIX     =    2 max onsite mixed and CHGCAR
   VOSKOWN=      0    Vosko Wilk Nusair interpolation
   ROPT   =    0.00000   0.00000
 Ionic relaxation
   EDIFFG = 0.1E-03   stopping-criterion for IOM
   NSW    =   1000    number of steps for IOM
   NBLOCK =      1;   KBLOCK =   1000    inner block; outer block 
   IBRION =      2    ionic relax: 0-MD 1-quasi-New 2-CG
   NFREE  =      1    steps in history (QN), initial steepest desc. (CG)
   ISIF   =      3    stress and relaxation
   IWAVPR =     11    prediction:  0-non 1-charg 2-wave 3-comb
   ISYM   =      2    0-nonsym 1-usesym 2-fastsym
   LCORR  =      T    Harris-Foulkes like correction to forces

   POTIM  = 0.5000    time-step for ionic-motion
   TEIN   =    0.0    initial temperature
   TEBEG  =    0.0;   TEEND  =   0.0 temperature during run
   SMASS  =  -3.00    Nose mass-parameter (am)
   estimated Nose-frequenzy (Omega)   =  0.10E-29 period in steps =****** mass=  -0.233E-27a.u.
   SCALEE = 1.0000    scale energy and forces
   NPACO  =    256;   APACO  = 16.0  distance and # of slots for P.C.
   PSTRESS=    0.0 pullay stress

  Mass of Ions in am
   POMASS =  95.94 32.07
  Ionic Valenz
   ZVAL   =  14.00  6.00
  Atomic Wigner-Seitz radii
   RWIGS  =  -1.00 -1.00
  virtual crystal weights 
   VCA    =   1.00  1.00
   NELECT =      52.0000    total number of electrons
   NUPDOWN=      -1.0000    fix difference up-down

 DOS related values:
   EMIN   =  10.00;   EMAX   =-10.00  energy-range for DOS
   EFERMI =   0.00
   ISMEAR =     0;   SIGMA  =   0.05  broadening in eV -4-tet -1-fermi 0-gaus

 Electronic relaxation 2 (details)
   IALGO  =     68    algorithm
   LDIAG  =      T    sub-space diagonalisation (order eigenvalues)
   LSUBROT=      F    optimize rotation matrix (better conditioning)
   TURBO    =      0    0=normal 1=particle mesh
   IRESTART =      0    0=no restart 2=restart with 2 vectors
   NREBOOT  =      0    no. of reboots
   NMIN     =      0    reboot dimension
   EREF     =   0.00    reference energy to select bands
   IMIX   =      4    mixing-type and parameters
     AMIX     =   0.40;   BMIX     =  1.00
     AMIX_MAG =   1.60;   BMIX_MAG =  1.00
     AMIN     =   0.10
     WC   =   100.;   INIMIX=   1;  MIXPRE=   1;  MAXMIX= -45

 Intra band minimization:
   WEIMIN = 0.0010     energy-eigenvalue tresh-hold
   EBREAK =  0.78E-07  absolut break condition
   DEPER  =   0.30     relativ break condition  

   TIME   =   0.40     timestep for ELM

  volume/ion in A,a.u.               =      21.86       147.51
  Fermi-wavevector in a.u.,A,eV,Ry     =   1.202685  2.272746 19.680175  1.446452
  Thomas-Fermi vector in A             =   2.338460
 
 Write flags
   LWAVE        =      T    write WAVECAR
   LDOWNSAMPLE  =      F    k-point downsampling of WAVECAR
   LCHARG       =      F    write CHGCAR
   LVTOT        =      F    write LOCPOT, total local potential
   LVHAR        =      F    write LOCPOT, Hartree potential only
   LELF         =      F    write electronic localiz. function (ELF)
   LORBIT       =      0    0 simple, 1 ext, 2 COOP (PROOUT), +10 PAW based schemes


 Dipole corrections
   LMONO  =      F    monopole corrections only (constant potential shift)
   LDIPOL =      F    correct potential (dipole corrections)
   IDIPOL =      0    1-x, 2-y, 3-z, 4-all directions 
   EPSILON=  1.0000000 bulk dielectric constant

 Exchange correlation treatment:
   GGA     =    --    GGA type
   LEXCH   =     8    internal setting for exchange type
   VOSKOWN=      0    Vosko Wilk Nusair interpolation
   LHFCALC =     F    Hartree Fock is set to
   LHFONE  =     F    Hartree Fock one center treatment
   AEXX    =    0.0000 exact exchange contribution

 Linear response parameters
   LEPSILON=     F    determine dielectric tensor
   LRPA    =     F    only Hartree local field effects (RPA)
   LNABLA  =     F    use nabla operator in PAW spheres
   LVEL    =     F    velocity operator in full k-point grid
   LINTERFAST=   F  fast interpolation
   KINTER  =     0    interpolate to denser k-point grid
   CSHIFT  =0.1000    complex shift for real part using Kramers Kronig
   OMEGAMAX=  -1.0    maximum frequency
   DEG_THRESHOLD= 0.2000000E-02 threshold for treating states as degnerate
   RTIME   =   -0.100 relaxation time in fs
  (WPLASMAI=    0.000 imaginary part of plasma frequency in eV, 0.658/RTIME)
   DFIELD  = 0.0000000 0.0000000 0.0000000 field for delta impulse in time
 
 Orbital magnetization related:
   ORBITALMAG=     F  switch on orbital magnetization
   LCHIMAG   =     F  perturbation theory with respect to B field
   DQ        =  0.001000  dq finite difference perturbation B field
   LLRAUG    =     F  two centre corrections for induced B field



--------------------------------------------------------------------------------------------------------


 conjugate gradient relaxation of ions
 charge density and potential will be updated during run
 non-spin polarized calculation
 RMM-DIIS sequential band-by-band and
  variant of blocked Davidson during initial phase
 perform sub-space diagonalisation
    before iterative eigenvector-optimisation
 modified Broyden-mixing scheme, WC =      100.0
 initial mixing is a Kerker type mixing with AMIX =  0.4000 and BMIX =      1.0000
 Hartree-type preconditioning will be used
 using additional bands            6
 reciprocal scheme for non local part
 use partial core corrections
 calculate Harris-corrections to forces 
   (improved forces if not selfconsistent)
 use gradient corrections 
 use of overlap-Matrix (Vanderbilt PP)
 Gauss-broadening in eV      SIGMA  =   0.05


--------------------------------------------------------------------------------------------------------


  energy-cutoff  :      344.91
  volume of cell :      131.15
      direct lattice vectors                 reciprocal lattice vectors
     3.190316000  0.000000000  0.000000000     0.313448574  0.180969664  0.000000000
    -1.595158000  2.762894000  0.000000000     0.000000000  0.361939329  0.000000000
     0.000000000  0.000000000 14.879004000     0.000000000  0.000000000  0.067208800

  length of vectors
     3.190316000  3.190315392 14.879004000     0.361939260  0.361939329  0.067208800


 
 k-points in units of 2pi/SCALE and weight: MoS2 kpoints                            
   0.00000000  0.00000000  0.00000000       0.008
   0.06268971  0.03619393  0.00000000       0.048
   0.12537943  0.07238787  0.00000000       0.048
   0.06268971  0.10858180  0.00000000       0.048
   0.12537943  0.14477573  0.00000000       0.048
   0.00000000  0.00000000  0.01344176       0.016
   0.06268971  0.03619393  0.01344176       0.096
   0.12537943  0.07238787  0.01344176       0.096
   0.06268971  0.10858180  0.01344176       0.096
   0.12537943  0.14477573  0.01344176       0.096
   0.00000000  0.00000000  0.02688352       0.016
   0.06268971  0.03619393  0.02688352       0.096
   0.12537943  0.07238787  0.02688352       0.096
   0.06268971  0.10858180  0.02688352       0.096
   0.12537943  0.14477573  0.02688352       0.096
 
 k-points in reciprocal lattice and weights: MoS2 kpoints                            
   0.00000000  0.00000000  0.00000000       0.008
   0.20000000  0.00000000  0.00000000       0.048
   0.40000000  0.00000000  0.00000000       0.048
   0.20000000  0.20000000  0.00000000       0.048
   0.40000000  0.20000000  0.00000000       0.048
   0.00000000  0.00000000  0.20000000       0.016
   0.20000000  0.00000000  0.20000000       0.096
   0.40000000  0.00000000  0.20000000       0.096
   0.20000000  0.20000000  0.20000000       0.096
   0.40000000  0.20000000  0.20000000       0.096
   0.00000000  0.00000000  0.40000000       0.016
   0.20000000  0.00000000  0.40000000       0.096
   0.40000000  0.00000000  0.40000000       0.096
   0.20000000  0.20000000  0.40000000       0.096
   0.40000000  0.20000000  0.40000000       0.096
 
 position of ions in fractional coordinates (direct lattice) 
   0.66666700  0.33333300  0.25000000
   0.33333300  0.66666700  0.75000000
   0.33333300  0.66666700  0.14482600
   0.66666700  0.33333300  0.64482600
   0.33333300  0.66666700  0.35517400
   0.66666700  0.33333300  0.85517400
 
 position of ions in cartesian coordinates  (Angst):
   1.59515960  0.92096375  3.71975100
  -0.00000160  1.84193025 11.15925300
  -0.00000160  1.84193025  2.15486663
   1.59515960  0.92096375  9.59436863
  -0.00000160  1.84193025  5.28463537
   1.59515960  0.92096375 12.72413737
 


--------------------------------------------------------------------------------------------------------


 k-point  1 :   0.0000 0.0000 0.0000  plane waves:    1893
 k-point  2 :   0.2000 0.0000 0.0000  plane waves:    1900
 k-point  3 :   0.4000 0.0000 0.0000  plane waves:    1906
 k-point  4 :   0.2000 0.2000 0.0000  plane waves:    1903
 k-point  5 :   0.4000 0.2000 0.0000  plane waves:    1917
 k-point  6 :   0.0000 0.0000 0.2000  plane waves:    1899
 k-point  7 :   0.2000 0.0000 0.2000  plane waves:    1892
 k-point  8 :   0.4000 0.0000 0.2000  plane waves:    1908
 k-point  9 :   0.2000 0.2000 0.2000  plane waves:    1904
 k-point 10 :   0.4000 0.2000 0.2000  plane waves:    1931
 k-point 11 :   0.0000 0.0000 0.4000  plane waves:    1923
 k-point 12 :   0.2000 0.0000 0.4000  plane waves:    1886
 k-point 13 :   0.4000 0.0000 0.4000  plane waves:    1901
 k-point 14 :   0.2000 0.2000 0.4000  plane waves:    1900
 k-point 15 :   0.4000 0.2000 0.4000  plane waves:    1927

 maximum and minimum number of plane-waves per node :       250      230

 maximum number of plane-waves:      1931
 maximum index in each direction: 
   IXMAX=    4   IYMAX=    4   IZMAX=   22
   IXMIN=   -5   IYMIN=   -5   IZMIN=  -22


 parallel 3D FFT for wavefunctions:
    minimum data exchange during FFTs selected (reduces bandwidth)
 parallel 3D FFT for charge:
    minimum data exchange during FFTs selected (reduces bandwidth)


 total amount of memory used by VASP MPI-rank0    37869. kBytes
=======================================================================

   base      :      30000. kBytes
   nonl-proj :       2404. kBytes
   fftplans  :       2859. kBytes
   grid      :       1436. kBytes
   one-center:         80. kBytes
   wavefun   :       1090. kBytes
 
     INWAV:  cpu time    0.0000: real time    0.0001
 Broyden mixing: mesh for mixing (old mesh)
   NGX =  9   NGY =  9   NGZ = 45
  (NGX  = 40   NGY  = 40   NGZ  =180)
  gives a total of   3645 points

 initial charge density was supplied:
 charge density of overlapping atoms calculated
 number of electron      52.0000000 magnetization 
 keeping initial charge density in first step


--------------------------------------------------------------------------------------------------------


 Maximum index for augmentation-charges         5198 (set IRDMAX)


--------------------------------------------------------------------------------------------------------


 First call to EWALD:  gamma=   0.349
 Maximum number of real-space cells 5x 5x 1
 Maximum number of reciprocal cells 2x 2x 7

    FEWALD:  cpu time    0.0030: real time    0.0022


--------------------------------------- Iteration      1(   1)  ---------------------------------------


    POTLOK:  cpu time    0.0200: real time    0.0277
    SETDIJ:  cpu time    0.0350: real time    0.0335
     EDDAV:  cpu time    0.5279: real time    0.5292
       DOS:  cpu time    0.0010: real time    0.0010
    --------------------------------------------
      LOOP:  cpu time    0.5839: real time    0.5915

 eigenvalue-minimisations  :  1152
 total energy-change (2. order) : 0.3616635E+03  (-0.2353160E+04)
 number of electron      52.0000000 magnetization 
 augmentation part       52.0000000 magnetization 

 Free energy of the ion-electron system (eV)
  ---------------------------------------------------
  alpha Z        PSCENC =       145.80791439
  Ewald energy   TEWEN  =     -2213.96869372
  -Hartree energ DENC   =     -2463.21000708
  -exchange      EXHF   =         0.00000000
  -V(xc)+E(xc)   XCENC  =       167.14707076
  PAW double counting   =      3905.22371462    -3865.63498383
  entropy T*S    EENTRO =        -0.00716641
  eigenvalues    EBANDS =      -143.77895610
  atomic energy  EATOM  =      4830.08457801
  Solvation  Ediel_sol  =         0.00000000
  ---------------------------------------------------
  free energy    TOTEN  =       361.66347063 eV

  energy without entropy =      361.67063704  energy(sigma->0) =      361.66705384


--------------------------------------------------------------------------------------------------------




--------------------------------------- Iteration      1(   2)  ---------------------------------------


     EDDAV:  cpu time    0.4519: real time    0.4531
       DOS:  cpu time    0.0010: real time    0.0003
    --------------------------------------------
      LOOP:  cpu time    0.4529: real time    0.4533

 eigenvalue-minimisations  :  1440
 total energy-change (2. order) :-0.3824886E+03  (-0.3729617E+03)
 number of electron      52.0000000 magnetization 
 augmentation part       52.0000000 magnetization 

 Free energy of the ion-electron system (eV)
  ---------------------------------------------------
  alpha Z        PSCENC =       145.80791439
  Ewald energy   TEWEN  =     -2213.96869372
  -Hartree energ DENC   =     -2463.21000708
  -exchange      EXHF   =         0.00000000
  -V(xc)+E(xc)   XCENC  =       167.14707076
  PAW double counting   =      3905.22371462    -3865.63498383
  entropy T*S    EENTRO =        -0.00000000
  eigenvalues    EBANDS =      -526.27476550
  atomic energy  EATOM  =      4830.08457801
  Solvation  Ediel_sol  =         0.00000000
  ---------------------------------------------------
  free energy    TOTEN  =       -20.82517236 eV

  energy without entropy =      -20.82517236  energy(sigma->0) =      -20.82517236


--------------------------------------------------------------------------------------------------------




--------------------------------------- Iteration      1(   3)  ---------------------------------------


     EDDAV:  cpu time    0.3829: real time    0.3850
       DOS:  cpu time    0.0000: real time    0.0003
    --------------------------------------------
      LOOP:  cpu time    0.3829: real time    0.3853

 eigenvalue-minimisations  :  1368
 total energy-change (2. order) :-0.3009420E+02  (-0.2992358E+02)
 number of electron      52.0000000 magnetization 
 augmentation part       52.0000000 magnetization 

 Free energy of the ion-electron system (eV)
  ---------------------------------------------------
  alpha Z        PSCENC =       145.80791439
  Ewald energy   TEWEN  =     -2213.96869372
  -Hartree energ DENC   =     -2463.21000708
  -exchange      EXHF   =         0.00000000
  -V(xc)+E(xc)   XCENC  =       167.14707076
  PAW double counting   =      3905.22371462    -3865.63498383
  entropy T*S    EENTRO =        -0.00000000
  eigenvalues    EBANDS =      -556.36896381
  atomic energy  EATOM  =      4830.08457801
  Solvation  Ediel_sol  =         0.00000000
  ---------------------------------------------------
  free energy    TOTEN  =       -50.91937067 eV

  energy without entropy =      -50.91937067  energy(sigma->0) =      -50.91937067


--------------------------------------------------------------------------------------------------------




--------------------------------------- Iteration      1(   4)  ---------------------------------------


     EDDAV:  cpu time    0.4249: real time    0.4265
       DOS:  cpu time    0.0010: real time    0.0003
    --------------------------------------------
      LOOP:  cpu time    0.4259: real time    0.4268

 eigenvalue-minimisations  :  1552
 total energy-change (2. order) :-0.1542534E+01  (-0.1539119E+01)
 number of electron      52.0000000 magnetization 
 augmentation part       52.0000000 magnetization 

 Free energy of the ion-electron system (eV)
  ---------------------------------------------------
  alpha Z        PSCENC =       145.80791439
  Ewald energy   TEWEN  =     -2213.96869372
  -Hartree energ DENC   =     -2463.21000708
  -exchange      EXHF   =         0.00000000
  -V(xc)+E(xc)   XCENC  =       167.14707076
  PAW double counting   =      3905.22371462    -3865.63498383
  entropy T*S    EENTRO =        -0.00000000
  eigenvalues    EBANDS =      -557.91149788
  atomic energy  EATOM  =      4830.08457801
  Solvation  Ediel_sol  =         0.00000000
  ---------------------------------------------------
  free energy    TOTEN  =       -52.46190473 eV

  energy without entropy =      -52.46190473  energy(sigma->0) =      -52.46190473


--------------------------------------------------------------------------------------------------------




--------------------------------------- Iteration      1(   5)  ---------------------------------------


     EDDAV:  cpu time    0.4339: real time    0.4357
       DOS:  cpu time    0.0010: real time    0.0003
    CHARGE:  cpu time    0.0390: real time    0.0392
    MIXING:  cpu time    0.0010: real time    0.0013
    --------------------------------------------
      LOOP:  cpu time    0.4749: real time    0.4765

 eigenvalue-minimisations  :  1600
 total energy-change (2. order) :-0.5952346E-01  (-0.5949014E-01)
 number of electron      52.0000000 magnetization 
 augmentation part       -3.6260489 magnetization 

 Broyden mixing:
  rms(total) = 0.14954E+01    rms(broyden)= 0.14945E+01
  rms(prec ) = 0.18879E+01
  weight for this iteration     100.00

 Free energy of the ion-electron system (eV)
  ---------------------------------------------------
  alpha Z        PSCENC =       145.80791439
  Ewald energy   TEWEN  =     -2213.96869372
  -Hartree energ DENC   =     -2463.21000708
  -exchange      EXHF   =         0.00000000
  -V(xc)+E(xc)   XCENC  =       167.14707076
  PAW double counting   =      3905.22371462    -3865.63498383
  entropy T*S    EENTRO =        -0.00000000
  eigenvalues    EBANDS =      -557.97102134
  atomic energy  EATOM  =      4830.08457801
  Solvation  Ediel_sol  =         0.00000000
  ---------------------------------------------------
  free energy    TOTEN  =       -52.52142819 eV

  energy without entropy =      -52.52142819  energy(sigma->0) =      -52.52142819


--------------------------------------------------------------------------------------------------------




--------------------------------------- Iteration      1(   6)  ---------------------------------------


    POTLOK:  cpu time    0.0120: real time    0.0132
    SETDIJ:  cpu time    0.0180: real time    0.0165
    EDDIAG:  cpu time    0.0750: real time    0.0755
  RMM-DIIS:  cpu time    0.2550: real time    0.2542
    ORTHCH:  cpu time    0.0050: real time    0.0066
       DOS:  cpu time    0.0000: real time    0.0003
    CHARGE:  cpu time    0.0410: real time    0.0395
    MIXING:  cpu time    0.0010: real time    0.0012
    --------------------------------------------
      LOOP:  cpu time    0.4069: real time    0.4070

 eigenvalue-minimisations  :  1269
 total energy-change (2. order) : 0.5726036E+01  (-0.5684383E+01)
 number of electron      52.0000000 magnetization 
 augmentation part       -2.7598627 magnetization 

 Broyden mixing:
  rms(total) = 0.68505E+00    rms(broyden)= 0.68478E+00
  rms(prec ) = 0.83263E+00
  weight for this iteration     100.00

 eigenvalues of (default mixing * dielectric matrix)
  average eigenvalue GAMMA=   0.8257
  0.8257

 Free energy of the ion-electron system (eV)
  ---------------------------------------------------
  alpha Z        PSCENC =       145.80791439
  Ewald energy   TEWEN  =     -2213.96869372
  -Hartree energ DENC   =     -2364.31627892
  -exchange      EXHF   =         0.00000000
  -V(xc)+E(xc)   XCENC  =       164.87453464
  PAW double counting   =      3737.97388476    -3700.99863887
  entropy T*S    EENTRO =        -0.00000000
  eigenvalues    EBANDS =      -646.25269297
  atomic energy  EATOM  =      4830.08457801
  Solvation  Ediel_sol  =         0.00000000
  ---------------------------------------------------
  free energy    TOTEN  =       -46.79539269 eV

  energy without entropy =      -46.79539269  energy(sigma->0) =      -46.79539269


--------------------------------------------------------------------------------------------------------




--------------------------------------- Iteration      1(   7)  ---------------------------------------


    POTLOK:  cpu time    0.0110: real time    0.0132
    SETDIJ:  cpu time    0.0170: real time    0.0166
    EDDIAG:  cpu time    0.0760: real time    0.0754
  RMM-DIIS:  cpu time    0.2570: real time    0.2577
    ORTHCH:  cpu time    0.0070: real time    0.0066
       DOS:  cpu time    0.0000: real time    0.0003
    CHARGE:  cpu time    0.0390: real time    0.0395
    MIXING:  cpu time    0.0010: real time    0.0011
    --------------------------------------------
      LOOP:  cpu time    0.4089: real time    0.4103

 eigenvalue-minimisations  :  1294
 total energy-change (2. order) : 0.1518705E+01  (-0.2588973E+00)
 number of electron      52.0000000 magnetization 
 augmentation part       -2.9289925 magnetization 

 Broyden mixing:
  rms(total) = 0.31779E+00    rms(broyden)= 0.31776E+00
  rms(prec ) = 0.35410E+00
  weight for this iteration     100.00

 eigenvalues of (default mixing * dielectric matrix)
  average eigenvalue GAMMA=   1.2590
  0.8413  1.6766

 Free energy of the ion-electron system (eV)
  ---------------------------------------------------
  alpha Z        PSCENC =       145.80791439
  Ewald energy   TEWEN  =     -2213.96869372
  -Hartree energ DENC   =     -2390.40125145
  -exchange      EXHF   =         0.00000000
  -V(xc)+E(xc)   XCENC  =       165.14079339
  PAW double counting   =      3814.09684124    -3776.17638776
  entropy T*S    EENTRO =        -0.00000000
  eigenvalues    EBANDS =      -619.86048184
  atomic energy  EATOM  =      4830.08457801
  Solvation  Ediel_sol  =         0.00000000
  ---------------------------------------------------
  free energy    TOTEN  =       -45.27668773 eV

  energy without entropy =      -45.27668773  energy(sigma->0) =      -45.27668773


--------------------------------------------------------------------------------------------------------




--------------------------------------- Iteration      1(   8)  ---------------------------------------


    POTLOK:  cpu time    0.0130: real time    0.0134
    SETDIJ:  cpu time    0.0160: real time    0.0163
    EDDIAG:  cpu time    0.0750: real time    0.0753
  RMM-DIIS:  cpu time    0.2390: real time    0.2384
    ORTHCH:  cpu time    0.0060: real time    0.0066
       DOS:  cpu time    0.0010: real time    0.0003
    CHARGE:  cpu time    0.0400: real time    0.0400
    MIXING:  cpu time    0.0010: real time    0.0010
    --------------------------------------------
      LOOP:  cpu time    0.3899: real time    0.3913

 eigenvalue-minimisations  :  1197
 total energy-change (2. order) : 0.1608760E-01  (-0.1443610E+00)
 number of electron      52.0000000 magnetization 
 augmentation part       -3.0378183 magnetization 

 Broyden mixing:
  rms(total) = 0.15134E+00    rms(broyden)= 0.15130E+00
  rms(prec ) = 0.18705E+00
  weight for this iteration     100.00

 eigenvalues of (default mixing * dielectric matrix)
  average eigenvalue GAMMA=   1.3871
  2.4771  0.8422  0.8422

 Free energy of the ion-electron system (eV)
  ---------------------------------------------------
  alpha Z        PSCENC =       145.80791439
  Ewald energy   TEWEN  =     -2213.96869372
  -Hartree energ DENC   =     -2404.05899600
  -exchange      EXHF   =         0.00000000
  -V(xc)+E(xc)   XCENC  =       165.28230371
  PAW double counting   =      3851.23836609    -3812.72319751
  entropy T*S    EENTRO =        -0.00000000
  eigenvalues    EBANDS =      -606.92287510
  atomic energy  EATOM  =      4830.08457801
  Solvation  Ediel_sol  =         0.00000000
  ---------------------------------------------------
  free energy    TOTEN  =       -45.26060013 eV

  energy without entropy =      -45.26060013  energy(sigma->0) =      -45.26060013


--------------------------------------------------------------------------------------------------------




--------------------------------------- Iteration      1(   9)  ---------------------------------------


    POTLOK:  cpu time    0.0160: real time    0.0170
    SETDIJ:  cpu time    0.0170: real time    0.0164
    EDDIAG:  cpu time    0.0750: real time    0.0755
  RMM-DIIS:  cpu time    0.2570: real time    0.2563
    ORTHCH:  cpu time    0.0070: real time    0.0069
       DOS:  cpu time    0.0000: real time    0.0003
    CHARGE:  cpu time    0.0400: real time    0.0395
    MIXING:  cpu time    0.0010: real time    0.0011
    --------------------------------------------
      LOOP:  cpu time    0.4129: real time    0.4129

 eigenvalue-minimisations  :  1286
 total energy-change (2. order) : 0.5702443E-01  (-0.2361647E-01)
 number of electron      52.0000000 magnetization 
 augmentation part       -2.9842235 magnetization 

 Broyden mixing:
  rms(total) = 0.47026E-01    rms(broyden)= 0.47013E-01
  rms(prec ) = 0.51249E-01
  weight for this iteration     100.00

 eigenvalues of (default mixing * dielectric matrix)
  average eigenvalue GAMMA=   1.4546
  2.4045  0.8801  0.8801  1.6539

 Free energy of the ion-electron system (eV)
  ---------------------------------------------------
  alpha Z        PSCENC =       145.80791439
  Ewald energy   TEWEN  =     -2213.96869372
  -Hartree energ DENC   =     -2398.52590143
  -exchange      EXHF   =         0.00000000
  -V(xc)+E(xc)   XCENC  =       165.19039804
  PAW double counting   =      3843.87256256    -3805.41273814
  entropy T*S    EENTRO =        -0.00000000
  eigenvalues    EBANDS =      -612.25169541
  atomic energy  EATOM  =      4830.08457801
  Solvation  Ediel_sol  =         0.00000000
  ---------------------------------------------------
  free energy    TOTEN  =       -45.20357570 eV

  energy without entropy =      -45.20357570  energy(sigma->0) =      -45.20357570


--------------------------------------------------------------------------------------------------------




--------------------------------------- Iteration      1(  10)  ---------------------------------------


    POTLOK:  cpu time    0.0110: real time    0.0133
    SETDIJ:  cpu time    0.0170: real time    0.0162
    EDDIAG:  cpu time    0.0750: real time    0.0753
  RMM-DIIS:  cpu time    0.2390: real time    0.2395
    ORTHCH:  cpu time    0.0070: real time    0.0066
       DOS:  cpu time    0.0000: real time    0.0003
    CHARGE:  cpu time    0.0390: real time    0.0396
    MIXING:  cpu time    0.0020: real time    0.0010
    --------------------------------------------
      LOOP:  cpu time    0.3899: real time    0.3917

 eigenvalue-minimisations  :  1199
 total energy-change (2. order) : 0.1516169E-02  (-0.4645304E-02)
 number of electron      52.0000000 magnetization 
 augmentation part       -2.9978195 magnetization 

 Broyden mixing:
  rms(total) = 0.18562E-01    rms(broyden)= 0.18560E-01
  rms(prec ) = 0.24370E-01
  weight for this iteration     100.00

 eigenvalues of (default mixing * dielectric matrix)
  average eigenvalue GAMMA=   1.4019
  2.3322  1.9924  0.8477  0.8477  0.9895

 Free energy of the ion-electron system (eV)
  ---------------------------------------------------
  alpha Z        PSCENC =       145.80791439
  Ewald energy   TEWEN  =     -2213.96869372
  -Hartree energ DENC   =     -2400.38058794
  -exchange      EXHF   =         0.00000000
  -V(xc)+E(xc)   XCENC  =       165.29473312
  PAW double counting   =      3852.40892820    -3813.87947515
  entropy T*S    EENTRO =        -0.00000000
  eigenvalues    EBANDS =      -610.56945644
  atomic energy  EATOM  =      4830.08457801
  Solvation  Ediel_sol  =         0.00000000
  ---------------------------------------------------
  free energy    TOTEN  =       -45.20205953 eV

  energy without entropy =      -45.20205953  energy(sigma->0) =      -45.20205953


--------------------------------------------------------------------------------------------------------




--------------------------------------- Iteration      1(  11)  ---------------------------------------


    POTLOK:  cpu time    0.0130: real time    0.0132
    SETDIJ:  cpu time    0.0170: real time    0.0165
    EDDIAG:  cpu time    0.0750: real time    0.0753
  RMM-DIIS:  cpu time    0.2630: real time    0.2635
    ORTHCH:  cpu time    0.0060: real time    0.0066
       DOS:  cpu time    0.0010: real time    0.0003
    CHARGE:  cpu time    0.0390: real time    0.0395
    MIXING:  cpu time    0.0020: real time    0.0013
    --------------------------------------------
      LOOP:  cpu time    0.4159: real time    0.4161

 eigenvalue-minimisations  :  1322
 total energy-change (2. order) :-0.6637280E-04  (-0.1962438E-02)
 number of electron      52.0000000 magnetization 
 augmentation part       -2.9890730 magnetization 

 Broyden mixing:
  rms(total) = 0.68338E-02    rms(broyden)= 0.68242E-02
  rms(prec ) = 0.81526E-02
  weight for this iteration     100.00

 eigenvalues of (default mixing * dielectric matrix)
  average eigenvalue GAMMA=   1.4043
  2.5018  1.6980  1.6980  0.8399  0.8399  0.8483

 Free energy of the ion-electron system (eV)
  ---------------------------------------------------
  alpha Z        PSCENC =       145.80791439
  Ewald energy   TEWEN  =     -2213.96869372
  -Hartree energ DENC   =     -2399.60164919
  -exchange      EXHF   =         0.00000000
  -V(xc)+E(xc)   XCENC  =       165.28124826
  PAW double counting   =      3849.36395409    -3810.87179882
  entropy T*S    EENTRO =        -0.00000000
  eigenvalues    EBANDS =      -611.29767891
  atomic energy  EATOM  =      4830.08457801
  Solvation  Ediel_sol  =         0.00000000
  ---------------------------------------------------
  free energy    TOTEN  =       -45.20212590 eV

  energy without entropy =      -45.20212590  energy(sigma->0) =      -45.20212590


--------------------------------------------------------------------------------------------------------




--------------------------------------- Iteration      1(  12)  ---------------------------------------


    POTLOK:  cpu time    0.0120: real time    0.0133
    SETDIJ:  cpu time    0.0170: real time    0.0165
    EDDIAG:  cpu time    0.0750: real time    0.0754
  RMM-DIIS:  cpu time    0.2690: real time    0.2688
    ORTHCH:  cpu time    0.0060: real time    0.0066
       DOS:  cpu time    0.0000: real time    0.0003
    CHARGE:  cpu time    0.0400: real time    0.0395
    MIXING:  cpu time    0.0010: real time    0.0012
    --------------------------------------------
      LOOP:  cpu time    0.4199: real time    0.4215

 eigenvalue-minimisations  :  1353
 total energy-change (2. order) :-0.1067328E-03  (-0.3835348E-03)
 number of electron      52.0000000 magnetization 
 augmentation part       -2.9911104 magnetization 

 Broyden mixing:
  rms(total) = 0.33950E-02    rms(broyden)= 0.33937E-02
  rms(prec ) = 0.38869E-02
  weight for this iteration     100.00

 eigenvalues of (default mixing * dielectric matrix)
  average eigenvalue GAMMA=   1.4623
  2.5016  2.5016  1.7928  1.0505  0.8487  0.8487  0.6924

 Free energy of the ion-electron system (eV)
  ---------------------------------------------------
  alpha Z        PSCENC =       145.80791439
  Ewald energy   TEWEN  =     -2213.96869372
  -Hartree energ DENC   =     -2400.07649971
  -exchange      EXHF   =         0.00000000
  -V(xc)+E(xc)   XCENC  =       165.28407729
  PAW double counting   =      3849.11869150    -3810.63455679
  entropy T*S    EENTRO =        -0.00000000
  eigenvalues    EBANDS =      -610.81774361
  atomic energy  EATOM  =      4830.08457801
  Solvation  Ediel_sol  =         0.00000000
  ---------------------------------------------------
  free energy    TOTEN  =       -45.20223264 eV

  energy without entropy =      -45.20223264  energy(sigma->0) =      -45.20223264


--------------------------------------------------------------------------------------------------------




--------------------------------------- Iteration      1(  13)  ---------------------------------------


    POTLOK:  cpu time    0.0120: real time    0.0132
    SETDIJ:  cpu time    0.0170: real time    0.0165
    EDDIAG:  cpu time    0.0750: real time    0.0755
  RMM-DIIS:  cpu time    0.2410: real time    0.2408
    ORTHCH:  cpu time    0.0070: real time    0.0066
       DOS:  cpu time    0.0000: real time    0.0003
    CHARGE:  cpu time    0.0400: real time    0.0397
    MIXING:  cpu time    0.0010: real time    0.0013
    --------------------------------------------
      LOOP:  cpu time    0.3929: real time    0.3940

 eigenvalue-minimisations  :  1196
 total energy-change (2. order) :-0.1465551E-03  (-0.1774608E-03)
 number of electron      52.0000000 magnetization 
 augmentation part       -2.9901123 magnetization 

 Broyden mixing:
  rms(total) = 0.13903E-02    rms(broyden)= 0.13894E-02
  rms(prec ) = 0.16508E-02
  weight for this iteration     100.00

 eigenvalues of (default mixing * dielectric matrix)
  average eigenvalue GAMMA=   1.4907
  2.7280  2.4562  1.6798  1.6798  0.9775  0.8491  0.8491  0.7059

 Free energy of the ion-electron system (eV)
  ---------------------------------------------------
  alpha Z        PSCENC =       145.80791439
  Ewald energy   TEWEN  =     -2213.96869372
  -Hartree energ DENC   =     -2400.19598573
  -exchange      EXHF   =         0.00000000
  -V(xc)+E(xc)   XCENC  =       165.28572680
  PAW double counting   =      3848.01162840    -3809.53998181
  entropy T*S    EENTRO =        -0.00000000
  eigenvalues    EBANDS =      -610.68756552
  atomic energy  EATOM  =      4830.08457801
  Solvation  Ediel_sol  =         0.00000000
  ---------------------------------------------------
  free energy    TOTEN  =       -45.20237919 eV

  energy without entropy =      -45.20237919  energy(sigma->0) =      -45.20237919


--------------------------------------------------------------------------------------------------------




--------------------------------------- Iteration      1(  14)  ---------------------------------------


    POTLOK:  cpu time    0.0120: real time    0.0133
    SETDIJ:  cpu time    0.0170: real time    0.0162
    EDDIAG:  cpu time    0.0750: real time    0.0753
  RMM-DIIS:  cpu time    0.2190: real time    0.2192
    ORTHCH:  cpu time    0.0070: real time    0.0066
       DOS:  cpu time    0.0000: real time    0.0003
    CHARGE:  cpu time    0.0390: real time    0.0395
    MIXING:  cpu time    0.0010: real time    0.0012
    --------------------------------------------
      LOOP:  cpu time    0.3709: real time    0.3715

 eigenvalue-minimisations  :  1083
 total energy-change (2. order) :-0.2681786E-04  (-0.5162227E-04)
 number of electron      52.0000000 magnetization 
 augmentation part       -2.9905645 magnetization 

 Broyden mixing:
  rms(total) = 0.15211E-02    rms(broyden)= 0.15209E-02
  rms(prec ) = 0.17064E-02
  weight for this iteration     100.00

 eigenvalues of (default mixing * dielectric matrix)
  average eigenvalue GAMMA=   1.5255
  3.0002  2.4740  2.2969  1.3133  1.3133  0.8489  0.8489  0.9588  0.6753

 Free energy of the ion-electron system (eV)
  ---------------------------------------------------
  alpha Z        PSCENC =       145.80791439
  Ewald energy   TEWEN  =     -2213.96869372
  -Hartree energ DENC   =     -2400.22371042
  -exchange      EXHF   =         0.00000000
  -V(xc)+E(xc)   XCENC  =       165.29062789
  PAW double counting   =      3848.27596248    -3809.79691279
  entropy T*S    EENTRO =        -0.00000000
  eigenvalues    EBANDS =      -610.67217185
  atomic energy  EATOM  =      4830.08457801
  Solvation  Ediel_sol  =         0.00000000
  ---------------------------------------------------
  free energy    TOTEN  =       -45.20240601 eV

  energy without entropy =      -45.20240601  energy(sigma->0) =      -45.20240601


--------------------------------------------------------------------------------------------------------




--------------------------------------- Iteration      1(  15)  ---------------------------------------


    POTLOK:  cpu time    0.0120: real time    0.0133
    SETDIJ:  cpu time    0.0170: real time    0.0162
    EDDIAG:  cpu time    0.0750: real time    0.0754
  RMM-DIIS:  cpu time    0.1700: real time    0.1705
    ORTHCH:  cpu time    0.0070: real time    0.0066
       DOS:  cpu time    0.0000: real time    0.0003
    CHARGE:  cpu time    0.0390: real time    0.0397
    MIXING:  cpu time    0.0020: real time    0.0013
    --------------------------------------------
      LOOP:  cpu time    0.3210: real time    0.3233

 eigenvalue-minimisations  :   816
 total energy-change (2. order) :-0.1266857E-04  (-0.2431600E-04)
 number of electron      52.0000000 magnetization 
 augmentation part       -2.9903938 magnetization 

 Broyden mixing:
  rms(total) = 0.25255E-03    rms(broyden)= 0.25239E-03
  rms(prec ) = 0.31815E-03
  weight for this iteration     100.00

 eigenvalues of (default mixing * dielectric matrix)
  average eigenvalue GAMMA=   1.5124
  3.1044  2.5771  2.5771  1.3653  1.3653  0.8491  0.8491  0.8931  0.8536  0.6899

 Free energy of the ion-electron system (eV)
  ---------------------------------------------------
  alpha Z        PSCENC =       145.80791439
  Ewald energy   TEWEN  =     -2213.96869372
  -Hartree energ DENC   =     -2400.26330813
  -exchange      EXHF   =         0.00000000
  -V(xc)+E(xc)   XCENC  =       165.28898015
  PAW double counting   =      3847.79472817    -3809.31711542
  entropy T*S    EENTRO =        -0.00000000
  eigenvalues    EBANDS =      -610.62950211
  atomic energy  EATOM  =      4830.08457801
  Solvation  Ediel_sol  =         0.00000000
  ---------------------------------------------------
  free energy    TOTEN  =       -45.20241868 eV

  energy without entropy =      -45.20241868  energy(sigma->0) =      -45.20241868


--------------------------------------------------------------------------------------------------------




--------------------------------------- Iteration      1(  16)  ---------------------------------------


    POTLOK:  cpu time    0.0120: real time    0.0132
    SETDIJ:  cpu time    0.0170: real time    0.0165
    EDDIAG:  cpu time    0.0750: real time    0.0753
  RMM-DIIS:  cpu time    0.1440: real time    0.1441
    ORTHCH:  cpu time    0.0060: real time    0.0066
       DOS:  cpu time    0.0010: real time    0.0002
    --------------------------------------------
      LOOP:  cpu time    0.2550: real time    0.2559

 eigenvalue-minimisations  :   668
 total energy-change (2. order) :-0.4461057E-05  (-0.7025412E-05)
 number of electron      52.0000000 magnetization 
 augmentation part       -2.9903938 magnetization 

 Free energy of the ion-electron system (eV)
  ---------------------------------------------------
  alpha Z        PSCENC =       145.80791439
  Ewald energy   TEWEN  =     -2213.96869372
  -Hartree energ DENC   =     -2400.28352750
  -exchange      EXHF   =         0.00000000
  -V(xc)+E(xc)   XCENC  =       165.28910537
  PAW double counting   =      3847.78186611    -3809.30356096
  entropy T*S    EENTRO =        -0.00000000
  eigenvalues    EBANDS =      -610.61010484
  atomic energy  EATOM  =      4830.08457801
  Solvation  Ediel_sol  =         0.00000000
  ---------------------------------------------------
  free energy    TOTEN  =       -45.20242314 eV

  energy without entropy =      -45.20242314  energy(sigma->0) =      -45.20242314


--------------------------------------------------------------------------------------------------------




 average (electrostatic) potential at core
  the test charge radii are     0.8928  1.0339
  (the norm of the test charge is              1.0000)
       1-102.3578       2-102.3577       3 -90.0893       4 -90.0893       5 -90.0893
       6 -90.0893
 
 
 
 E-fermi :   5.0390     XC(G=0):  -9.4193     alpha+bet :-10.5804


 k-point     1 :       0.0000    0.0000    0.0000
  band No.  band energies     occupation 
      1     -56.4304      2.00000
      2     -56.4300      2.00000
      3     -30.5575      2.00000
      4     -30.5560      2.00000
      5     -30.3577      2.00000
      6     -30.3577      2.00000
      7     -30.3574      2.00000
      8     -30.3574      2.00000
      9      -9.5860      2.00000
     10      -9.5673      2.00000
     11      -8.3040      2.00000
     12      -8.2701      2.00000
     13      -1.1761      2.00000
     14      -1.0141      2.00000
     15       1.8744      2.00000
     16       1.8744      2.00000
     17       1.8749      2.00000
     18       1.8749      2.00000
     19       2.4442      2.00000
     20       2.9686      2.00000
     21       2.9686      2.00000
     22       2.9709      2.00000
     23       2.9710      2.00000
     24       3.0070      2.00000
     25       4.2972      2.00000
     26       4.6794      2.00000
     27       7.2055      0.00000
     28       7.2065      0.00000
     29       7.2673      0.00000
     30       7.3145      0.00000
     31       7.4468      0.00000
     32       7.4497      0.00000

 k-point     2 :       0.2000    0.0000    0.0000
  band No.  band energies     occupation 
      1     -56.4178      2.00000
      2     -56.4176      2.00000
      3     -30.5327      2.00000
      4     -30.5318      2.00000
      5     -30.4835      2.00000
      6     -30.4833      2.00000
      7     -30.3864      2.00000
      8     -30.3862      2.00000
      9      -9.0406      2.00000
     10      -9.0230      2.00000
     11      -8.0761      2.00000
     12      -8.0487      2.00000
     13      -0.6402      2.00000
     14      -0.4967      2.00000
     15       0.9074      2.00000
     16       0.9231      2.00000
     17       1.2480      2.00000
     18       1.3881      2.00000
     19       2.2538      2.00000
     20       2.2572      2.00000
     21       2.4310      2.00000
     22       2.4332      2.00000
     23       3.2092      2.00000
     24       3.4568      2.00000
     25       3.9773      2.00000
     26       4.0798      2.00000
     27       6.5244      0.00000
     28       6.8362      0.00000
     29       6.9612      0.00000
     30       6.9787      0.00000
     31       7.0711      0.00000
     32       7.3547      0.00000

 k-point     3 :       0.4000    0.0000    0.0000
  band No.  band energies     occupation 
      1     -56.3975      2.00000
      2     -56.3974      2.00000
      3     -30.6829      2.00000
      4     -30.6826      2.00000
      5     -30.4918      2.00000
      6     -30.4916      2.00000
      7     -30.4330      2.00000
      8     -30.4326      2.00000
      9      -7.9664      2.00000
     10      -7.9559      2.00000
     11      -7.6399      2.00000
     12      -7.6280      2.00000
     13      -1.0438      2.00000
     14      -1.0126      2.00000
     15      -0.0584      2.00000
     16      -0.0215      2.00000
     17       0.4924      2.00000
     18       0.5746      2.00000
     19       1.4422      2.00000
     20       1.4466      2.00000
     21       2.6598      2.00000
     22       2.7474      2.00000
     23       3.3433      2.00000
     24       3.3529      2.00000
     25       3.6059      2.00000
     26       3.6556      2.00000
     27       6.6651      0.00000
     28       6.7078      0.00000
     29       6.9486      0.00000
     30       7.0925      0.00000
     31       8.0144      0.00000
     32       8.3202      0.00000

 k-point     4 :       0.2000    0.2000    0.0000
  band No.  band energies     occupation 
      1     -56.4015      2.00000
      2     -56.4011      2.00000
      3     -30.6140      2.00000
      4     -30.6134      2.00000
      5     -30.4995      2.00000
      6     -30.4989      2.00000
      7     -30.4570      2.00000
      8     -30.4564      2.00000
      9      -8.2068      2.00000
     10      -8.1935      2.00000
     11      -7.7244      2.00000
     12      -7.7076      2.00000
     13      -0.5511      2.00000
     14      -0.5034      2.00000
     15       0.2903      2.00000
     16       0.3068      2.00000
     17       0.7427      2.00000
     18       0.8056      2.00000
     19       1.1323      2.00000
     20       1.2382      2.00000
     21       2.2462      2.00000
     22       2.2490      2.00000
     23       3.2171      2.00000
     24       3.2722      2.00000
     25       3.6991      2.00000
     26       3.7006      2.00000
     27       6.3501      0.00000
     28       6.6134      0.00000
     29       7.0099      0.00000
     30       7.1853      0.00000
     31       7.3614      0.00000
     32       8.1995      0.00000

 k-point     5 :       0.4000    0.2000    0.0000
  band No.  band energies     occupation 
      1     -56.3912      2.00000
      2     -56.3912      2.00000
      3     -30.6754      2.00000
      4     -30.6751      2.00000
      5     -30.5175      2.00000
      6     -30.5173      2.00000
      7     -30.4789      2.00000
      8     -30.4789      2.00000
      9      -7.5846      2.00000
     10      -7.5802      2.00000
     11      -7.4557      2.00000
     12      -7.4514      2.00000
     13      -0.7118      2.00000
     14      -0.6901      2.00000
     15      -0.6598      2.00000
     16      -0.6529      2.00000
     17       0.5589      2.00000
     18       0.6148      2.00000
     19       1.3831      2.00000
     20       1.4373      2.00000
     21       1.7555      2.00000
     22       1.7765      2.00000
     23       2.5378      2.00000
     24       2.5819      2.00000
     25       4.2025      2.00000
     26       4.2250      2.00000
     27       6.4625      0.00000
     28       6.4838      0.00000
     29       7.6177      0.00000
     30       7.6735      0.00000
     31       7.7344      0.00000
     32       7.8815      0.00000

 k-point     6 :       0.0000    0.0000    0.2000
  band No.  band energies     occupation 
      1     -56.4304      2.00000
      2     -56.4301      2.00000
      3     -30.5576      2.00000
      4     -30.5563      2.00000
      5     -30.3577      2.00000
      6     -30.3576      2.00000
      7     -30.3574      2.00000
      8     -30.3574      2.00000
      9      -9.5842      2.00000
     10      -9.5691      2.00000
     11      -8.3008      2.00000
     12      -8.2733      2.00000
     13      -1.1618      2.00000
     14      -1.0306      2.00000
     15       1.8744      2.00000
     16       1.8744      2.00000
     17       1.8748      2.00000
     18       1.8748      2.00000
     19       2.4905      2.00000
     20       2.9412      2.00000
     21       2.9688      2.00000
     22       2.9689      2.00000
     23       2.9707      2.00000
     24       2.9708      2.00000
     25       4.3465      2.00000
     26       4.6508      2.00000
     27       7.2060      0.00000
     28       7.2067      0.00000
     29       7.2800      0.00000
     30       7.3605      0.00000
     31       7.4490      0.00000
     32       7.4542      0.00000

 k-point     7 :       0.2000    0.0000    0.2000
  band No.  band energies     occupation 
      1     -56.4177      2.00000
      2     -56.4175      2.00000
      3     -30.5325      2.00000
      4     -30.5317      2.00000
      5     -30.4834      2.00000
      6     -30.4831      2.00000
      7     -30.3864      2.00000
      8     -30.3861      2.00000
      9      -9.0390      2.00000
     10      -9.0247      2.00000
     11      -8.0734      2.00000
     12      -8.0512      2.00000
     13      -0.6275      2.00000
     14      -0.5115      2.00000
     15       0.9085      2.00000
     16       0.9209      2.00000
     17       1.2638      2.00000
     18       1.3768      2.00000
     19       2.2541      2.00000
     20       2.2569      2.00000
     21       2.4313      2.00000
     22       2.4331      2.00000
     23       3.2284      2.00000
     24       3.4268      2.00000
     25       3.9925      2.00000
     26       4.0732      2.00000
     27       6.5522      0.00000
     28       6.8172      0.00000
     29       6.9576      0.00000
     30       6.9858      0.00000
     31       7.1416      0.00000
     32       7.8423      0.00000

 k-point     8 :       0.4000    0.0000    0.2000
  band No.  band energies     occupation 
      1     -56.3975      2.00000
      2     -56.3974      2.00000
      3     -30.6830      2.00000
      4     -30.6827      2.00000
      5     -30.4919      2.00000
      6     -30.4916      2.00000
      7     -30.4330      2.00000
      8     -30.4326      2.00000
      9      -7.9654      2.00000
     10      -7.9569      2.00000
     11      -7.6387      2.00000
     12      -7.6291      2.00000
     13      -1.0409      2.00000
     14      -1.0157      2.00000
     15      -0.0553      2.00000
     16      -0.0256      2.00000
     17       0.5008      2.00000
     18       0.5672      2.00000
     19       1.4425      2.00000
     20       1.4461      2.00000
     21       2.6676      2.00000
     22       2.7384      2.00000
     23       3.3443      2.00000
     24       3.3520      2.00000
     25       3.6112      2.00000
     26       3.6515      2.00000
     27       6.6559      0.00000
     28       6.6724      0.00000
     29       6.9510      0.00000
     30       7.0759      0.00000
     31       8.0510      0.00000
     32       8.2650      0.00000

 k-point     9 :       0.2000    0.2000    0.2000
  band No.  band energies     occupation 
      1     -56.4014      2.00000
      2     -56.4012      2.00000
      3     -30.6138      2.00000
      4     -30.6135      2.00000
      5     -30.4993      2.00000
      6     -30.4992      2.00000
      7     -30.4569      2.00000
      8     -30.4565      2.00000
      9      -8.2056      2.00000
     10      -8.1947      2.00000
     11      -7.7226      2.00000
     12      -7.7091      2.00000
     13      -0.5466      2.00000
     14      -0.5081      2.00000
     15       0.2917      2.00000
     16       0.3052      2.00000
     17       0.7471      2.00000
     18       0.7974      2.00000
     19       1.1451      2.00000
     20       1.2299      2.00000
     21       2.2464      2.00000
     22       2.2486      2.00000
     23       3.2218      2.00000
     24       3.2664      2.00000
     25       3.6992      2.00000
     26       3.7005      2.00000
     27       6.3712      0.00000
     28       6.5810      0.00000
     29       6.9740      0.00000
     30       7.0154      0.00000
     31       7.2702      0.00000
     32       7.4269      0.00000

 k-point    10 :       0.4000    0.2000    0.2000
  band No.  band energies     occupation 
      1     -56.3914      2.00000
      2     -56.3913      2.00000
      3     -30.6756      2.00000
      4     -30.6753      2.00000
      5     -30.5178      2.00000
      6     -30.5177      2.00000
      7     -30.4792      2.00000
      8     -30.4790      2.00000
      9      -7.5842      2.00000
     10      -7.5806      2.00000
     11      -7.4554      2.00000
     12      -7.4518      2.00000
     13      -0.7099      2.00000
     14      -0.6925      2.00000
     15      -0.6590      2.00000
     16      -0.6534      2.00000
     17       0.5638      2.00000
     18       0.6090      2.00000
     19       1.3885      2.00000
     20       1.4323      2.00000
     21       1.7577      2.00000
     22       1.7747      2.00000
     23       2.5415      2.00000
     24       2.5774      2.00000
     25       4.2045      2.00000
     26       4.2229      2.00000
     27       6.4658      0.00000
     28       6.4841      0.00000
     29       7.6221      0.00000
     30       7.7279      0.00000
     31       7.8356      0.00000
     32       8.2002      0.00000

 k-point    11 :       0.0000    0.0000    0.4000
  band No.  band energies     occupation 
      1     -56.4306      2.00000
      2     -56.4303      2.00000
      3     -30.5579      2.00000
      4     -30.5568      2.00000
      5     -30.3580      2.00000
      6     -30.3580      2.00000
      7     -30.3576      2.00000
      8     -30.3576      2.00000
      9      -9.5797      2.00000
     10      -9.5738      2.00000
     11      -8.2923      2.00000
     12      -8.2819      2.00000
     13      -1.1230      2.00000
     14      -1.0727      2.00000
     15       1.8743      2.00000
     16       1.8743      2.00000
     17       1.8746      2.00000
     18       1.8746      2.00000
     19       2.6166      2.00000
     20       2.7861      2.00000
     21       2.9689      2.00000
     22       2.9690      2.00000
     23       2.9701      2.00000
     24       2.9702      2.00000
     25       4.4575      2.00000
     26       4.5714      2.00000
     27       7.2054      0.00000
     28       7.2066      0.00000
     29       7.2795      0.00000
     30       7.3688      0.00000
     31       7.4511      0.00000
     32       7.4522      0.00000

 k-point    12 :       0.2000    0.0000    0.4000
  band No.  band energies     occupation 
      1     -56.4176      2.00000
      2     -56.4175      2.00000
      3     -30.5324      2.00000
      4     -30.5318      2.00000
      5     -30.4832      2.00000
      6     -30.4830      2.00000
      7     -30.3862      2.00000
      8     -30.3860      2.00000
      9      -9.0346      2.00000
     10      -9.0292      2.00000
     11      -8.0665      2.00000
     12      -8.0580      2.00000
     13      -0.5932      2.00000
     14      -0.5489      2.00000
     15       0.9115      2.00000
     16       0.9161      2.00000
     17       1.3022      2.00000
     18       1.3451      2.00000
     19       2.2551      2.00000
     20       2.2563      2.00000
     21       2.4320      2.00000
     22       2.4327      2.00000
     23       3.2820      2.00000
     24       3.3567      2.00000
     25       4.0242      2.00000
     26       4.0543      2.00000
     27       6.6123      0.00000
     28       6.7075      0.00000
     29       6.9619      0.00000
     30       6.9855      0.00000
     31       7.1607      0.00000
     32       7.4285      0.00000

 k-point    13 :       0.4000    0.0000    0.4000
  band No.  band energies     occupation 
      1     -56.3974      2.00000
      2     -56.3973      2.00000
      3     -30.6829      2.00000
      4     -30.6828      2.00000
      5     -30.4916      2.00000
      6     -30.4913      2.00000
      7     -30.4327      2.00000
      8     -30.4326      2.00000
      9      -7.9628      2.00000
     10      -7.9595      2.00000
     11      -7.6357      2.00000
     12      -7.6321      2.00000
     13      -1.0332      2.00000
     14      -1.0236      2.00000
     15      -0.0468      2.00000
     16      -0.0354      2.00000
     17       0.5222      2.00000
     18       0.5475      2.00000
     19       1.4438      2.00000
     20       1.4451      2.00000
     21       2.6887      2.00000
     22       2.7157      2.00000
     23       3.3467      2.00000
     24       3.3497      2.00000
     25       3.6247      2.00000
     26       3.6399      2.00000
     27       6.6517      0.00000
     28       6.6737      0.00000
     29       6.9818      0.00000
     30       7.0831      0.00000
     31       8.1044      0.00000
     32       8.1889      0.00000

 k-point    14 :       0.2000    0.2000    0.4000
  band No.  band energies     occupation 
      1     -56.4013      2.00000
      2     -56.4012      2.00000
      3     -30.6136      2.00000
      4     -30.6135      2.00000
      5     -30.4994      2.00000
      6     -30.4993      2.00000
      7     -30.4566      2.00000
      8     -30.4564      2.00000
      9      -8.2023      2.00000
     10      -8.1981      2.00000
     11      -7.7184      2.00000
     12      -7.7132      2.00000
     13      -0.5348      2.00000
     14      -0.5201      2.00000
     15       0.2959      2.00000
     16       0.3010      2.00000
     17       0.7599      2.00000
     18       0.7787      2.00000
     19       1.1749      2.00000
     20       1.2070      2.00000
     21       2.2469      2.00000
     22       2.2478      2.00000
     23       3.2348      2.00000
     24       3.2517      2.00000
     25       3.6997      2.00000
     26       3.7002      2.00000
     27       6.4340      0.00000
     28       6.5152      0.00000
     29       6.9987      0.00000
     30       7.2313      0.00000
     31       7.3355      0.00000
     32       8.6769      0.00000

 k-point    15 :       0.4000    0.2000    0.4000
  band No.  band energies     occupation 
      1     -56.3913      2.00000
      2     -56.3912      2.00000
      3     -30.6756      2.00000
      4     -30.6753      2.00000
      5     -30.5179      2.00000
      6     -30.5177      2.00000
      7     -30.4791      2.00000
      8     -30.4788      2.00000
      9      -7.5831      2.00000
     10      -7.5817      2.00000
     11      -7.4542      2.00000
     12      -7.4529      2.00000
     13      -0.7048      2.00000
     14      -0.6982      2.00000
     15      -0.6569      2.00000
     16      -0.6549      2.00000
     17       0.5771      2.00000
     18       0.5942      2.00000
     19       1.4028      2.00000
     20       1.4195      2.00000
     21       1.7634      2.00000
     22       1.7699      2.00000
     23       2.5520      2.00000
     24       2.5657      2.00000
     25       4.2102      2.00000
     26       4.2174      2.00000
     27       6.4728      0.00000
     28       6.5095      0.00000
     29       7.6081      0.00000
     30       7.7657      0.00000
     31       7.8162      0.00000
     32       8.4983      0.00000


--------------------------------------------------------------------------------------------------------


 soft charge-density along one line, spin component           1
         0         1         2         3         4         5         6         7         8         9
 total charge-density along one line
 
 pseudopotential strength for first ion, spin component:           1
 21.244  -0.283  30.682  -0.000   0.000   0.000  -0.000   0.000
 -0.283  14.979 -23.520  -0.000   0.000   0.000  -0.000   0.000
 30.682 -23.520  21.342   0.000  -0.000  -0.000   0.000  -0.000
 -0.000  -0.000   0.000 -10.958   0.000   0.000  -9.912   0.000
  0.000   0.000  -0.000   0.000 -10.956  -0.000   0.000  -9.910
  0.000   0.000  -0.000   0.000  -0.000 -10.958   0.000  -0.000
 -0.000  -0.000   0.000  -9.912   0.000   0.000  -8.945   0.000
  0.000   0.000  -0.000   0.000  -9.910  -0.000   0.000  -8.943
  0.000   0.000  -0.000   0.000  -0.000  -9.912   0.000  -0.000
 -0.000   0.000   0.000   8.349   0.000   0.000   8.346   0.000
  0.000  -0.000  -0.000   0.000   8.346  -0.000   0.000   8.343
  0.000  -0.000  -0.000   0.000  -0.000   8.349   0.000  -0.000
 -0.000   0.000  -0.000  -0.000  -0.000  -0.002  -0.000  -0.000
 -0.000   0.000  -0.000  -0.000   0.000  -0.000  -0.000   0.000
  0.002  -0.002   0.000  -0.000  -0.000   0.000  -0.000  -0.000
  0.000  -0.000   0.000  -0.000  -0.000   0.000  -0.000  -0.000
  0.000  -0.000   0.000  -0.002   0.000  -0.000  -0.002   0.000
 -0.000   0.000  -0.000  -0.000  -0.000  -0.002  -0.000  -0.000
 -0.000   0.000  -0.000  -0.000   0.000  -0.000  -0.000   0.000
  0.002  -0.002   0.000  -0.000  -0.000   0.000  -0.000  -0.000
  0.000  -0.000   0.000  -0.000  -0.000   0.000  -0.000  -0.000
  0.000  -0.000   0.000  -0.002   0.000  -0.000  -0.002   0.000
 -0.000   0.000   0.000  -0.000  -0.000  -0.008  -0.000  -0.000
 -0.000   0.000   0.000  -0.000   0.000  -0.000  -0.000   0.000
  0.006   0.004  -0.008  -0.000  -0.000   0.000  -0.000  -0.000
  0.000  -0.000  -0.000  -0.000  -0.000   0.000  -0.000  -0.000
  0.000  -0.000  -0.000  -0.008   0.000  -0.000  -0.007   0.000
 -0.002   0.002  -0.001   0.000   0.000  -0.000   0.000   0.000
 -0.000   0.000  -0.000   0.000  -0.000  -0.000   0.000  -0.000
 -0.000   0.000  -0.000  -0.000  -0.000   0.000  -0.000  -0.000
 -0.000   0.000  -0.000   0.000   0.003  -0.000   0.000   0.003
  0.000  -0.000   0.000   0.000   0.000  -0.000   0.000   0.000
  0.000  -0.000   0.000   0.000   0.000   0.000   0.000   0.000
 -0.000   0.000  -0.000   0.000   0.000   0.000   0.000   0.000
  0.002  -0.006   0.004   0.000   0.000  -0.000   0.000   0.000
 -0.000  -0.000   0.000   0.000  -0.000  -0.000   0.000  -0.000
 -0.000  -0.000   0.000   0.006  -0.000   0.000   0.005  -0.000
 -0.000  -0.000   0.000   0.000   0.001  -0.000   0.000   0.001
  0.000   0.000  -0.000   0.000   0.000   0.006   0.000   0.000
  0.000   0.000  -0.000   0.000   0.000   0.000   0.000   0.000
 -0.000  -0.000   0.000   0.000   0.000   0.000   0.000   0.000
 total augmentation occupancy for first ion, spin component:           1
  2.006  -0.041  -0.004  -0.000   0.000  -0.000  -0.000  -0.000  -0.000   0.000   0.000   0.000   0.000   0.000  -0.010  -0.000
 -0.041   0.156   0.024   0.000  -0.000   0.000   0.000   0.000   0.000  -0.000  -0.000  -0.000   0.000   0.000   0.029   0.000
 -0.004   0.024   0.004   0.000  -0.000   0.000   0.000   0.000  -0.000  -0.000  -0.000   0.000   0.000  -0.000   0.004   0.000
 -0.000  -0.000   0.000   3.622   0.000   0.000  -1.778   0.000   0.000  -0.104   0.000   0.000   0.000  -0.000  -0.000  -0.000
  0.000  -0.000  -0.000   0.000   4.046   0.000  -0.000  -2.197  -0.000   0.000  -0.120  -0.000  -0.000   0.000  -0.000   0.000
 -0.000  -0.000   0.000   0.000  -0.000   3.622  -0.000   0.000  -1.778   0.000  -0.000  -0.104   0.127   0.000   0.000  -0.000
  0.000   0.000   0.000  -1.778   0.000  -0.000   1.980   0.000  -0.000   0.062   0.000  -0.000   0.000  -0.000   0.000  -0.000
 -0.000   0.000   0.000  -0.000  -2.197   0.000   0.000   2.396  -0.000  -0.000   0.076   0.000   0.000  -0.000   0.000  -0.000
 -0.000  -0.000   0.000   0.000   0.000  -1.778   0.000   0.000   1.980   0.000   0.000   0.062  -0.145  -0.000   0.000   0.000
  0.000  -0.000   0.000  -0.104   0.000   0.000   0.062   0.000   0.000   0.003   0.000   0.000   0.000   0.000   0.000   0.000
  0.000   0.000  -0.000   0.000  -0.120   0.000   0.000   0.076   0.000   0.000   0.004   0.000  -0.000  -0.000  -0.000  -0.000
  0.000   0.000   0.000  -0.000   0.000  -0.104  -0.000   0.000   0.062  -0.000   0.000   0.003  -0.004  -0.000   0.000  -0.000
 -0.000  -0.000   0.000   0.000   0.000   0.127   0.000   0.000  -0.145   0.000  -0.000  -0.004   0.583   0.000  -0.000   0.000
  0.000   0.000   0.000   0.000  -0.000  -0.000  -0.000   0.000   0.000  -0.000   0.000   0.000   0.000   0.309  -0.000   0.000
 -0.010   0.029   0.004  -0.000  -0.000  -0.000   0.000   0.000   0.000   0.000  -0.000   0.000  -0.000   0.000   0.743   0.000
  0.000  -0.000   0.000   0.000   0.000   0.000  -0.000   0.000   0.000  -0.000   0.000   0.000   0.000   0.000  -0.000   0.309
  0.000  -0.000  -0.000   0.127   0.000   0.000  -0.145  -0.000   0.000  -0.004   0.000   0.000   0.000   0.000  -0.000   0.000
  0.000   0.000   0.000   0.000   0.000  -0.290   0.000  -0.000   0.297   0.000  -0.000   0.008   0.008   0.000  -0.000  -0.000
 -0.000  -0.000  -0.000  -0.000   0.000   0.000  -0.000   0.000  -0.000   0.000  -0.000   0.000   0.000  -0.016   0.000  -0.000
  0.003   0.011   0.002   0.000  -0.000   0.000  -0.000  -0.000  -0.000  -0.000  -0.000  -0.000  -0.000  -0.000   0.029  -0.000
  0.000   0.000   0.000   0.000  -0.000   0.000  -0.000   0.000  -0.000  -0.000   0.000   0.000   0.000   0.000   0.000  -0.016
 -0.000  -0.000  -0.000  -0.290   0.000   0.000   0.297   0.000   0.000   0.008   0.000   0.000  -0.000   0.000  -0.000   0.000
  0.000   0.000  -0.000  -0.000   0.000  -0.001  -0.000   0.000   0.001   0.000  -0.000   0.000   0.002   0.000   0.000   0.000
  0.000   0.000   0.000   0.000  -0.000   0.000  -0.000   0.000   0.000   0.000   0.000   0.000   0.000   0.001  -0.000   0.000
  0.000   0.000   0.000   0.000   0.000   0.000  -0.000   0.000   0.000  -0.000  -0.000  -0.000   0.000   0.000   0.003   0.000
  0.000   0.000   0.000   0.000   0.000   0.000   0.000   0.000   0.000   0.000   0.000  -0.000  -0.000  -0.000   0.000   0.001
 -0.000  -0.000  -0.000  -0.001  -0.000  -0.000   0.001  -0.000   0.000   0.000   0.000   0.000   0.000  -0.000  -0.000  -0.000
 -0.001   0.015   0.002   0.000   0.000   0.000  -0.000  -0.000   0.000  -0.000  -0.000   0.000   0.000   0.000   0.025   0.000
 -0.000   0.000  -0.000   0.000   0.000  -0.000   0.000  -0.000   0.000  -0.000   0.000   0.000  -0.000  -0.000   0.000   0.014
  0.000  -0.000  -0.000  -0.043  -0.000   0.000   0.041   0.000   0.000   0.001  -0.000   0.000   0.000   0.000  -0.000  -0.000
  0.000   0.000  -0.000   0.000   0.058   0.000  -0.000  -0.058   0.000   0.000  -0.002  -0.000   0.000  -0.000  -0.000   0.000
  0.000   0.000  -0.000  -0.000  -0.000  -0.043   0.000  -0.000   0.041  -0.000   0.000   0.001   0.028   0.000  -0.000  -0.000
 -0.000   0.000   0.000   0.000  -0.000  -0.000   0.000   0.000   0.000   0.000   0.000   0.000   0.000   0.014   0.000  -0.000
  0.000  -0.000   0.000   0.000  -0.000   0.000  -0.000  -0.000  -0.000   0.000  -0.000  -0.000  -0.000   0.000  -0.000   0.000
  0.000   0.001   0.000   0.000  -0.000   0.000  -0.000  -0.000   0.000  -0.000   0.000   0.000   0.000   0.000   0.002  -0.000
 -0.000   0.000   0.000   0.000   0.000  -0.000  -0.000  -0.000   0.000   0.000  -0.000   0.000   0.000  -0.000   0.000   0.000
 -0.000  -0.000  -0.000  -0.003  -0.000   0.000   0.003   0.000   0.000   0.000   0.000  -0.000   0.000   0.000  -0.000   0.000
 -0.000  -0.000   0.000   0.000   0.004   0.000   0.000  -0.004   0.000   0.000  -0.000  -0.000   0.000  -0.000   0.000  -0.000
 -0.000   0.000   0.000   0.000   0.000  -0.003   0.000  -0.000   0.003   0.000  -0.000   0.000   0.001  -0.000  -0.000   0.000
  0.000  -0.000  -0.000   0.000  -0.000   0.000  -0.000   0.000  -0.000  -0.000   0.000  -0.000  -0.000   0.000   0.000  -0.000
  0.000   0.000   0.000   0.000  -0.000   0.000  -0.000  -0.000  -0.000   0.000   0.000  -0.000  -0.000   0.000  -0.000  -0.000


------------------------ aborting loop because EDIFF is reached ----------------------------------------


    CHARGE:  cpu time    0.0410: real time    0.0403
    FORLOC:  cpu time    0.0020: real time    0.0017
    FORNL :  cpu time    0.1520: real time    0.1518
    STRESS:  cpu time    0.3739: real time    0.3734
    FORCOR:  cpu time    0.0120: real time    0.0128
    FORHAR:  cpu time    0.0030: real time    0.0033
    MIXING:  cpu time    0.0010: real time    0.0008
    OFIELD:  cpu time    0.0000: real time    0.0000

  FORCE on cell =-STRESS in cart. coord.  units (eV):
  Direction    XX          YY          ZZ          XY          YZ          ZX
  --------------------------------------------------------------------------------------
  Alpha Z   145.80791   145.80791   145.80791
  Ewald     592.34517   592.34750 -3398.66488     0.00178     0.00000    -0.00000
  Hartree  1920.83606  1920.83594 -1441.38430    -0.00006     0.00000    -0.00000
  E(xc)    -221.51986  -221.51987  -222.00863    -0.00000    -0.00000    -0.00000
  Local   -3670.17007 -3670.17114  3669.73176    -0.00111     0.00000    -0.00000
  n-local   255.69470   255.27848   261.74311    -0.15603     0.00289     0.00388
  augment   -84.02847   -84.02841   -86.16452     0.00004     0.00000     0.00000
  Kinetic  1052.70703  1067.29725  1069.71500   -25.20690     0.00641     0.01303
  Fock        0.00000     0.00000     0.00000     0.00000     0.00000     0.00000
  -------------------------------------------------------------------------------------
  Total      -1.23993    -1.23993    -1.22456     0.00000     0.00000     0.00000
[...]
     22       3.9147      2.00000
     23       3.9171      2.00000
     24       3.9172      2.00000
     25       5.4121      2.00000
     26       5.5893      2.00000
     27       8.1645      0.00000
     28       8.1649      0.00000
     29       8.1669      0.00000
     30       8.1671      0.00000
     31       8.4093      0.00000
     32       8.4116      0.00000

 k-point    12 :       0.2000    0.0000    0.4000
  band No.  band energies     occupation 
      1     -55.4658      2.00000
      2     -55.4657      2.00000
      3     -29.5917      2.00000
      4     -29.5917      2.00000
      5     -29.5333      2.00000
      6     -29.5333      2.00000
      7     -29.4324      2.00000
      8     -29.4324      2.00000
      9      -8.1399      2.00000
     10      -8.1217      2.00000
     11      -7.1738      2.00000
     12      -7.1464      2.00000
     13       0.2626      2.00000
     14       0.3664      2.00000
     15       1.8312      2.00000
     16       1.8406      2.00000
     17       2.1948      2.00000
     18       2.2864      2.00000
     19       3.1905      2.00000
     20       3.1942      2.00000
     21       3.3780      2.00000
     22       3.3807      2.00000
     23       4.1630      2.00000
     24       4.2914      2.00000
     25       4.9541      2.00000
     26       4.9971      2.00000
     27       7.5369      0.00000
     28       7.6627      0.00000
     29       7.9025      0.00000
     30       7.9182      0.00000
     31       8.1145      0.00000
     32       8.1750      0.00000

 k-point    13 :       0.4000    0.0000    0.4000
  band No.  band energies     occupation 
      1     -55.4447      2.00000
      2     -55.4446      2.00000
      3     -29.7406      2.00000
      4     -29.7405      2.00000
      5     -29.5495      2.00000
      6     -29.5494      2.00000
      7     -29.4807      2.00000
      8     -29.4807      2.00000
      9      -7.0451      2.00000
     10      -7.0339      2.00000
     11      -6.7281      2.00000
     12      -6.7159      2.00000
     13      -0.1479      2.00000
     14      -0.1207      2.00000
     15       0.8268      2.00000
     16       0.8550      2.00000
     17       1.4205      2.00000
     18       1.4852      2.00000
     19       2.3699      2.00000
     20       2.3746      2.00000
     21       3.5744      2.00000
     22       3.6282      2.00000
     23       4.2968      2.00000
     24       4.3074      2.00000
     25       4.5387      2.00000
     26       4.5710      2.00000
     27       7.6144      0.00000
     28       7.6216      0.00000
     29       7.9102      0.00000
     30       7.9875      0.00000
     31       9.0406      0.00000
     32       9.1787      0.00000

 k-point    14 :       0.2000    0.2000    0.4000
  band No.  band energies     occupation 
      1     -55.4487      2.00000
      2     -55.4487      2.00000
      3     -29.6686      2.00000
      4     -29.6685      2.00000
      5     -29.5576      2.00000
      6     -29.5576      2.00000
      7     -29.5056      2.00000
      8     -29.5056      2.00000
      9      -7.2908      2.00000
     10      -7.2768      2.00000
     11      -6.8143      2.00000
     12      -6.7972      2.00000
     13       0.3504      2.00000
     14       0.3883      2.00000
     15       1.1953      2.00000
     16       1.2094      2.00000
     17       1.6541      2.00000
     18       1.6877      2.00000
     19       2.0838      2.00000
     20       2.1547      2.00000
     21       3.1711      2.00000
     22       3.1735      2.00000
     23       4.1525      2.00000
     24       4.1726      2.00000
     25       4.6316      2.00000
     26       4.6325      2.00000
     27       7.3205      0.00000
     28       7.4576      0.00000
     29       7.9389      0.00000
     30       7.9600      0.00000
     31       8.2822      0.00000
     32       8.3723      0.00000

 k-point    15 :       0.4000    0.2000    0.4000
  band No.  band energies     occupation 
      1     -55.4383      2.00000
      2     -55.4382      2.00000
      3     -29.7328      2.00000
      4     -29.7326      2.00000
      5     -29.5692      2.00000
      6     -29.5690      2.00000
      7     -29.5364      2.00000
      8     -29.5364      2.00000
      9      -6.6537      2.00000
     10      -6.6489      2.00000
     11      -6.5396      2.00000
     12      -6.5350      2.00000
     13       0.1798      2.00000
     14       0.1975      2.00000
     15       0.2380      2.00000
     16       0.2424      2.00000
     17       1.4652      2.00000
     18       1.5113      2.00000
     19       2.3003      2.00000
     20       2.3440      2.00000
     21       2.6820      2.00000
     22       2.7045      2.00000
     23       3.4442      2.00000
     24       3.4852      2.00000
     25       5.1412      2.00000
     26       5.1590      2.00000
     27       7.4341      0.00000
     28       7.4457      0.00000
     29       8.5417      0.00000
     30       8.5464      0.00000
     31       8.6871      0.00000
     32       8.7767      0.00000


--------------------------------------------------------------------------------------------------------


 soft charge-density along one line, spin component           1
         0         1         2         3         4         5         6         7         8         9
 total charge-density along one line
 
 pseudopotential strength for first ion, spin component:           1
 20.960  -0.352  30.351  -0.000   0.000   0.000  -0.000   0.000
 -0.352  15.029 -23.342  -0.000   0.000   0.000  -0.000   0.000
 30.351 -23.342  20.634   0.000  -0.000  -0.000   0.000  -0.000
 -0.000  -0.000   0.000 -10.968   0.000   0.000  -9.923   0.000
  0.000   0.000  -0.000   0.000 -10.967  -0.000   0.000  -9.922
  0.000   0.000  -0.000   0.000  -0.000 -10.968   0.000  -0.000
 -0.000  -0.000   0.000  -9.923   0.000   0.000  -8.956   0.000
  0.000   0.000  -0.000   0.000  -9.922  -0.000   0.000  -8.955
  0.000   0.000  -0.000   0.000  -0.000  -9.923   0.000  -0.000
 -0.000   0.000   0.000   8.187   0.000   0.000   8.201   0.000
  0.000  -0.000  -0.000   0.000   8.185  -0.000   0.000   8.199
  0.000  -0.000  -0.000   0.000  -0.000   8.187   0.000  -0.000
 -0.000   0.000  -0.000  -0.000  -0.000  -0.002  -0.000  -0.000
 -0.000   0.000  -0.000  -0.000   0.000  -0.000  -0.000   0.000
  0.001  -0.002   0.000  -0.000  -0.000   0.000  -0.000  -0.000
  0.000  -0.000   0.000  -0.000  -0.000   0.000  -0.000  -0.000
  0.000  -0.000   0.000  -0.002   0.000  -0.000  -0.002   0.000
 -0.000   0.000  -0.000  -0.000  -0.000  -0.002  -0.000  -0.000
 -0.000   0.000  -0.000  -0.000   0.000  -0.000  -0.000   0.000
  0.001  -0.002   0.000  -0.000  -0.000   0.000  -0.000  -0.000
  0.000  -0.000   0.000  -0.000  -0.000   0.000  -0.000  -0.000
  0.000  -0.000   0.000  -0.002   0.000  -0.000  -0.002   0.000
 -0.000   0.000   0.000  -0.000  -0.000  -0.008  -0.000  -0.000
 -0.000   0.000   0.000  -0.000   0.000  -0.000  -0.000   0.000
  0.004   0.004  -0.008  -0.000  -0.000   0.000  -0.000  -0.000
  0.000  -0.000  -0.000  -0.000  -0.000   0.000  -0.000  -0.000
  0.000  -0.000  -0.000  -0.008   0.000  -0.000  -0.007   0.000
 -0.002   0.002  -0.001   0.000   0.000  -0.000   0.000   0.000
 -0.000   0.000  -0.000   0.000  -0.000  -0.000   0.000  -0.000
 -0.000   0.000  -0.000  -0.001  -0.000   0.000  -0.001  -0.000
 -0.000   0.000  -0.000   0.000   0.003  -0.000   0.000   0.002
  0.000  -0.000   0.000   0.000   0.000  -0.001   0.000   0.000
  0.000  -0.000   0.000   0.000   0.000   0.000   0.000   0.000
 -0.000   0.000  -0.000   0.000   0.000   0.000   0.000   0.000
  0.002  -0.006   0.004   0.000   0.000  -0.000   0.000   0.000
 -0.000  -0.000   0.000   0.000  -0.000  -0.000   0.000  -0.000
 -0.000  -0.000   0.000   0.006  -0.000   0.000   0.005  -0.000
 -0.000  -0.000   0.000   0.000   0.000  -0.000   0.000   0.001
  0.000   0.000  -0.000   0.000   0.000   0.006   0.000   0.000
  0.000   0.000  -0.000   0.000   0.000   0.000   0.000   0.000
 -0.000  -0.000   0.000   0.000   0.000   0.000   0.000   0.000
 total augmentation occupancy for first ion, spin component:           1
  2.005  -0.040  -0.003   0.000   0.000  -0.000  -0.000   0.000   0.000  -0.000  -0.000   0.000   0.000  -0.000  -0.034  -0.000
 -0.040   0.157   0.024  -0.000   0.000   0.000   0.000   0.000  -0.000   0.000   0.000   0.000   0.000   0.000   0.030  -0.000
 -0.003   0.024   0.004  -0.000   0.000   0.000   0.000   0.000  -0.000   0.000   0.000  -0.000  -0.000  -0.000   0.004   0.000
  0.000  -0.000  -0.000   3.523  -0.000  -0.000  -1.729   0.000   0.000  -0.107   0.000   0.000  -0.000  -0.000  -0.000   0.000
  0.000   0.000   0.000  -0.000   3.816   0.000   0.000  -2.054  -0.000  -0.000  -0.127  -0.000  -0.000  -0.000  -0.000  -0.000
 -0.000   0.000   0.000  -0.000   0.000   3.523   0.000  -0.000  -1.729   0.000  -0.000  -0.107   0.135   0.000  -0.000  -0.000
 -0.000   0.000   0.000  -1.729   0.000   0.000   1.987  -0.000  -0.000   0.062  -0.000  -0.000   0.000   0.000   0.000  -0.000
  0.000   0.000   0.000   0.000  -2.054  -0.000  -0.000   2.352   0.000   0.000   0.076   0.000   0.000   0.000   0.000  -0.000
  0.000  -0.000  -0.000   0.000  -0.000  -1.729  -0.000   0.000   1.987  -0.000   0.000   0.062  -0.152  -0.000   0.000  -0.000
 -0.000   0.000   0.000  -0.107   0.000   0.000   0.062   0.000  -0.000   0.003   0.000  -0.000   0.000  -0.000   0.000   0.000
  0.000   0.000   0.000   0.000  -0.127  -0.000  -0.000   0.076   0.000  -0.000   0.004   0.000   0.000   0.000  -0.000   0.000
  0.000  -0.000  -0.000   0.000  -0.000  -0.107  -0.000   0.000   0.062  -0.000   0.000   0.003  -0.004   0.000   0.000   0.000
  0.000   0.000  -0.000  -0.000   0.000   0.135   0.000   0.000  -0.152   0.000  -0.000  -0.004   0.566   0.000   0.000   0.000
  0.000  -0.000   0.000   0.000   0.000   0.000  -0.000  -0.000  -0.000  -0.000  -0.000  -0.000   0.000   0.297   0.000  -0.000
 -0.034   0.030   0.004  -0.000  -0.000  -0.000   0.000   0.000  -0.000   0.000  -0.000   0.000   0.000   0.000   0.695   0.000
  0.000  -0.000  -0.000   0.000  -0.000  -0.000  -0.000   0.000   0.000  -0.000   0.000  -0.000  -0.000  -0.000   0.000   0.297
  0.000  -0.000  -0.000   0.135   0.000  -0.000  -0.152  -0.000   0.000  -0.004  -0.000   0.000  -0.000   0.000  -0.000   0.000
  0.000  -0.000   0.000   0.000  -0.000  -0.292  -0.000   0.000   0.298  -0.000   0.000   0.008   0.010   0.000   0.000  -0.000
  0.000  -0.000  -0.000   0.000  -0.000   0.000   0.000   0.000  -0.000   0.000   0.000   0.000   0.000  -0.027   0.000  -0.000
  0.024   0.009   0.002   0.000   0.000  -0.000  -0.000   0.000   0.000  -0.000  -0.000  -0.000   0.000   0.000   0.041   0.000
 -0.000   0.000   0.000   0.000   0.000   0.000   0.000   0.000  -0.000   0.000  -0.000  -0.000  -0.000  -0.000   0.000  -0.027
 -0.000  -0.000  -0.000  -0.292  -0.000   0.000   0.298   0.000  -0.000   0.008  -0.000  -0.000   0.000   0.000  -0.000  -0.000
  0.000   0.000   0.000   0.000   0.000  -0.001  -0.000   0.000   0.001  -0.000   0.000   0.000   0.003   0.000   0.000   0.000
 -0.000   0.000   0.000   0.000  -0.000  -0.000   0.000   0.000   0.000  -0.000   0.000   0.000  -0.000   0.001   0.000  -0.000
  0.002   0.000   0.000   0.000  -0.000  -0.000  -0.000   0.000   0.000  -0.000  -0.000   0.000   0.000  -0.000   0.004   0.000
 -0.000  -0.000  -0.000   0.000  -0.000   0.000   0.000   0.000  -0.000   0.000   0.000  -0.000   0.000  -0.000   0.000   0.001
 -0.000  -0.000  -0.000  -0.001  -0.000  -0.000   0.001   0.000   0.000   0.000  -0.000   0.000   0.000  -0.000  -0.000   0.000
 -0.001   0.015   0.002   0.000  -0.000  -0.000  -0.000  -0.000   0.000  -0.000  -0.000   0.000   0.000   0.000   0.025   0.000
 -0.000  -0.000  -0.000  -0.000   0.000  -0.000   0.000  -0.000   0.000   0.000  -0.000  -0.000   0.000  -0.000  -0.000   0.013
  0.000  -0.000  -0.000  -0.042   0.000   0.000   0.042  -0.000   0.000   0.001  -0.000  -0.000   0.000   0.000  -0.000   0.000
 -0.000   0.000  -0.000   0.000   0.058   0.000  -0.000  -0.057  -0.000  -0.000  -0.002  -0.000  -0.000  -0.000   0.000   0.000
  0.000   0.000   0.000   0.000   0.000  -0.042  -0.000  -0.000   0.042  -0.000  -0.000   0.001   0.028   0.000   0.000  -0.000
 -0.000  -0.000  -0.000  -0.000  -0.000  -0.000  -0.000   0.000   0.000  -0.000   0.000   0.000   0.000   0.013   0.000   0.000
 -0.000   0.000   0.000  -0.000  -0.000   0.000   0.000  -0.000  -0.000   0.000  -0.000  -0.000  -0.000   0.000   0.000  -0.000
 -0.000   0.001   0.000   0.000  -0.000  -0.000  -0.000   0.000   0.000  -0.000  -0.000   0.000   0.000  -0.000   0.002   0.000
  0.000  -0.000  -0.000  -0.000   0.000  -0.000   0.000  -0.000  -0.000  -0.000  -0.000   0.000  -0.000   0.000   0.000   0.000
  0.000  -0.000  -0.000  -0.002   0.000   0.000   0.003   0.000  -0.000   0.000  -0.000  -0.000   0.000  -0.000  -0.000   0.000
  0.000  -0.000  -0.000   0.000   0.005   0.000  -0.000  -0.005  -0.000  -0.000  -0.000  -0.000  -0.000  -0.000  -0.000  -0.000
  0.000   0.000   0.000   0.000   0.000  -0.002  -0.000  -0.000   0.003   0.000  -0.000   0.000   0.001   0.000   0.000  -0.000
  0.000  -0.000  -0.000  -0.000  -0.000   0.000   0.000   0.000   0.000  -0.000   0.000   0.000   0.000   0.000  -0.000   0.000
  0.000   0.000   0.000  -0.000   0.000   0.000   0.000  -0.000  -0.000   0.000  -0.000  -0.000  -0.000  -0.000   0.000  -0.000


------------------------ aborting loop because EDIFF is reached ----------------------------------------


    CHARGE:  cpu time    0.0420: real time    0.0416
    FORLOC:  cpu time    0.0020: real time    0.0017
    FORNL :  cpu time    0.1600: real time    0.1598
    STRESS:  cpu time    0.3969: real time    0.3964
    FORCOR:  cpu time    0.0120: real time    0.0128
    FORHAR:  cpu time    0.0030: real time    0.0033
    MIXING:  cpu time    0.0010: real time    0.0004
    OFIELD:  cpu time    0.0000: real time    0.0000

  FORCE on cell =-STRESS in cart. coord.  units (eV):
  Direction    XX          YY          ZZ          XY          YZ          ZX
  --------------------------------------------------------------------------------------
  Alpha Z   158.93314   158.93314   158.93314
  Ewald     117.36508   117.36740 -2931.29676     0.00177     0.00000    -0.00000
  Hartree  1503.00886  1503.00875 -1026.80096    -0.00006     0.00000    -0.00000
  E(xc)    -221.66941  -221.66942  -222.08283    -0.00000    -0.00000    -0.00000
  Local   -2790.52726 -2790.52832  2775.25942    -0.00110     0.00000    -0.00000
  n-local   256.66489   256.32058   262.76298    -0.26618     0.00847     0.00944
  augment   -83.96568   -83.96563   -85.86953     0.00004     0.00000     0.00000
  Kinetic  1053.05590  1067.61299  1069.15680   -25.17977     0.01831     0.03335
  Fock        0.00000     0.00000     0.00000     0.00000     0.00000     0.00000
  -------------------------------------------------------------------------------------
  Total      -0.02750    -0.02750     0.06225    -0.00000    -0.00000    -0.00000
  in kB      -0.36619    -0.36619     0.82889    -0.00000    -0.00000    -0.00000
  external pressure =        0.03 kB  Pullay stress =        0.00 kB


 VOLUME and BASIS-vectors are now :
 -----------------------------------------------------------------------------
  energy-cutoff  :      344.91
  volume of cell :      120.32
      direct lattice vectors                 reciprocal lattice vectors
     3.179267819 -0.000000000 -0.000000000     0.314537830  0.181598546 -0.000000000
    -1.589633910  2.753326003 -0.000000000     0.000000000  0.363197093 -0.000000000
     0.000000000  0.000000000 13.745282730     0.000000000  0.000000000  0.072752232

  length of vectors
     3.179267819  3.179267218 13.745282730     0.363197024  0.363197093  0.072752232


 FORCES acting on ions
    electron-ion (+dipol)            ewald-force                    non-local-force                 convergence-correction
 -----------------------------------------------------------------------------------------------
   -.685E-02 0.391E-02 -.356E-04   -.431E-03 0.319E-03 0.142E-12   -.260E-16 0.278E-16 0.542E-19   0.827E-06 -.485E-06 -.242E-09
   0.307E-02 -.173E-02 -.356E-04   0.431E-03 -.319E-03 0.000E+00   0.278E-16 -.278E-16 -.542E-19   -.908E-06 0.531E-06 -.245E-09
   0.290E-03 -.142E-03 0.435E+03   0.216E-03 -.160E-03 -.443E+03   0.260E-16 0.121E-16 0.774E+01   0.736E-08 -.387E-08 -.293E-02
   -.573E-03 0.306E-03 0.435E+03   -.216E-03 0.160E-03 -.443E+03   -.191E-16 0.694E-17 0.774E+01   0.803E-08 -.502E-08 -.293E-02
   0.872E-03 -.478E-03 -.435E+03   0.216E-03 -.160E-03 0.443E+03   0.382E-16 -.347E-17 -.774E+01   0.427E-08 -.208E-08 0.293E-02
   -.115E-02 0.642E-03 -.435E+03   -.216E-03 0.160E-03 0.443E+03   -.122E-16 -.121E-16 -.774E+01   0.111E-07 -.680E-08 0.293E-02
 -----------------------------------------------------------------------------------------------
   -.435E-02 0.251E-02 -.631E-04   0.150E-13 -.461E-14 0.000E+00   0.347E-16 0.347E-17 -.888E-15   -.496E-07 0.287E-07 -.714E-09
 
 
 POSITION                                       TOTAL-FORCE (eV/Angst)
 -----------------------------------------------------------------------------------
      1.58964      0.91777      3.43632        -0.000000     -0.000000      0.000000
     -0.00000      1.83555     10.30896         0.000000      0.000000      0.000000
     -0.00000      1.83555      1.87052        -0.000000     -0.000000      0.000162
      1.58964      0.91777      8.74316        -0.000000      0.000000      0.000162
     -0.00000      1.83555      5.00212        -0.000000     -0.000000     -0.000162
      1.58964      0.91777     11.87477        -0.000000     -0.000000     -0.000162
 -----------------------------------------------------------------------------------
    total drift:                               -0.004352      0.002512     -0.000063


--------------------------------------------------------------------------------------------------------



  FREE ENERGIE OF THE ION-ELECTRON SYSTEM (eV)
  ---------------------------------------------------
  free  energy   TOTEN  =       -45.23255495 eV

  energy  without entropy=      -45.23255495  energy(sigma->0) =      -45.23255495
 
 d Force = 0.6816382E-06[ 0.181E-06, 0.118E-05]  d Energy = 0.5890138E-05-0.521E-05
 d Force =-0.4963307E+00[-0.496E+00,-0.496E+00]  d Ewald  =-0.6178403E+00 0.122E+00


--------------------------------------------------------------------------------------------------------


    POTLOK:  cpu time    0.0300: real time    0.0299


--------------------------------------------------------------------------------------------------------




--------------------------------------------------------------------------------------------------------


  
 reached required accuracy - stopping structural energy minimisation
 writing wavefunctions
     LOOP+:  cpu time    1.4098: real time    1.4176
    4ORBIT:  cpu time    0.0000: real time    0.0000

 total amount of memory used by VASP MPI-rank0    37869. kBytes
=======================================================================

   base      :      30000. kBytes
   nonl-proj :       2404. kBytes
   fftplans  :       2859. kBytes
   grid      :       1436. kBytes
   one-center:         80. kBytes
   wavefun   :       1090. kBytes
 
  
  
 General timing and accounting informations for this job:
 ========================================================
  
                  Total CPU time used (sec):       52.897
                            User time (sec):       52.057
                          System time (sec):        0.840
                         Elapsed time (sec):       53.406
  
                   Maximum memory used (kb):      115524.
                   Average memory used (kb):           0.
  
                          Minor page faults:        16994
                          Major page faults:            0
                 Voluntary context switches:         1342
