 running on   16 total cores
 distrk:  each k-point on   16 cores,    1 groups
 distr:  one band on    8 cores,    2 groups
 using from now: INCAR     
 vasp.5.4.4.18Apr17-6-g9f103f2a35 (build Nov 26 2018 16:29:41) complex          
  
 POSCAR found type information on POSCAR  Mo S 
 POSCAR found :  2 types and       6 ions
 scaLAPACK will be used
 LDA part: xc-table for Pade appr. of Perdew
 POSCAR, INCAR and KPOINTS ok, starting setup
 FFT: planning ...
 WAVECAR not read
 entering main loop
       N       E                     dE             d eps       ncg     rms          rms(c)
DAV:   1     0.361663470632E+03    0.36166E+03   -0.23532E+04  1152   0.112E+03
DAV:   2    -0.208251723604E+02   -0.38249E+03   -0.37296E+03  1440   0.459E+02
DAV:   3    -0.509193706656E+02   -0.30094E+02   -0.29924E+02  1368   0.118E+02
DAV:   4    -0.524619047309E+02   -0.15425E+01   -0.15391E+01  1552   0.293E+01
DAV:   5    -0.525214281939E+02   -0.59523E-01   -0.59490E-01  1600   0.513E+00    0.150E+01
RMM:   6    -0.467953926863E+02    0.57260E+01   -0.56844E+01  1269   0.356E+01    0.685E+00
RMM:   7    -0.452766877325E+02    0.15187E+01   -0.25890E+00  1294   0.101E+01    0.318E+00
RMM:   8    -0.452606001324E+02    0.16088E-01   -0.14436E+00  1197   0.519E+00    0.151E+00
RMM:   9    -0.452035756999E+02    0.57024E-01   -0.23616E-01  1286   0.242E+00    0.470E-01
RMM:  10    -0.452020595310E+02    0.15162E-02   -0.46453E-02  1199   0.114E+00    0.186E-01
RMM:  11    -0.452021259038E+02   -0.66373E-04   -0.19624E-02  1322   0.504E-01    0.683E-02
RMM:  12    -0.452022326367E+02   -0.10673E-03   -0.38353E-03  1353   0.220E-01    0.340E-02
RMM:  13    -0.452023791917E+02   -0.14656E-03   -0.17746E-03  1196   0.134E-01    0.139E-02
RMM:  14    -0.452024060096E+02   -0.26818E-04   -0.51622E-04  1083   0.830E-02    0.152E-02
RMM:  15    -0.452024186781E+02   -0.12669E-04   -0.24316E-04   816   0.518E-02    0.253E-03
RMM:  16    -0.452024231392E+02   -0.44611E-05   -0.70254E-05   668   0.337E-02
   1 F= -.45202423E+02 E0= -.45202423E+02  d E =-.452024E+02
 curvature:   0.00 expect dE= 0.000E+00 dE for cont linesearch  0.000E+00
 trial: gam= 0.00000 g(F)=  0.387E-03 g(S)=  0.368E-01 ort = 0.000E+00 (trialstep = 0.100E+01)
 search vector abs. value=  0.372E-01
 bond charge predicted
       N       E                     dE             d eps       ncg     rms          rms(c)
DAV:   1    -0.455985560853E+02   -0.39614E+00   -0.15715E+01  1392   0.527E+01    0.423E+00
RMM:   2    -0.452393414455E+02    0.35921E+00   -0.14501E+00  1105   0.111E+01    0.138E+00
RMM:   3    -0.451872719950E+02    0.52069E-01   -0.20606E-01  1150   0.292E+00    0.628E-01
RMM:   4    -0.451834282538E+02    0.38437E-02   -0.54447E-02  1020   0.232E+00    0.264E-01
RMM:   5    -0.451853340349E+02   -0.19058E-02   -0.11949E-02  1330   0.609E-01    0.119E-01
RMM:   6    -0.451856493865E+02   -0.31535E-03   -0.14512E-03  1265   0.270E-01    0.327E-02
RMM:   7    -0.451857852997E+02   -0.13591E-03   -0.36066E-04  1254   0.108E-01    0.168E-02
RMM:   8    -0.451857829845E+02    0.23152E-05   -0.10074E-04   952   0.782E-02    0.960E-03
RMM:   9    -0.451857894138E+02   -0.64293E-05   -0.16097E-05   589   0.328E-02
   2 F= -.45185789E+02 E0= -.45185789E+02  d E =0.166337E-01
 trial-energy change:    0.016634  1 .order    0.016818   -0.037167    0.070803
 step:   0.3466(harm=  0.3442)  dis= 0.00075  next Energy=   -45.208871 (dE=-0.645E-02)
 bond charge predicted
       N       E                     dE             d eps       ncg     rms          rms(c)
DAV:   1    -0.453916414856E+02   -0.20586E+00   -0.66199E+00  1384   0.338E+01    0.281E+00
RMM:   2    -0.452433201998E+02    0.14832E+00   -0.78201E-01  1105   0.763E+00    0.974E-01
RMM:   3    -0.452111980218E+02    0.32122E-01   -0.81178E-02  1121   0.167E+00    0.429E-01
RMM:   4    -0.452082129798E+02    0.29850E-02   -0.25358E-02  1006   0.166E+00    0.166E-01
RMM:   5    -0.452089069372E+02   -0.69396E-03   -0.58452E-03  1257   0.450E-01    0.893E-02
RMM:   6    -0.452089155106E+02   -0.85734E-05   -0.64364E-04  1210   0.175E-01    0.303E-02
RMM:   7    -0.452089195970E+02   -0.40865E-05   -0.16372E-04  1047   0.696E-02    0.130E-02
RMM:   8    -0.452089250791E+02   -0.54821E-05   -0.82177E-05   893   0.870E-02
   3 F= -.45208925E+02 E0= -.45208925E+02  d E =-.650194E-02
 curvature:  -0.17 expect dE=-0.714E-03 dE for cont linesearch -0.804E-05
 trial: gam= 0.07623 g(F)=  0.390E-02 g(S)=  0.256E-03 ort = 0.132E-02 (trialstep = 0.869E+00)
 search vector abs. value=  0.457E-02
 bond charge predicted
       N       E                     dE             d eps       ncg     rms          rms(c)
DAV:   1    -0.452182630213E+02   -0.93434E-02   -0.37877E-01  1416   0.661E+00    0.544E-01
RMM:   2    -0.452124848724E+02    0.57781E-02   -0.28647E-02  1095   0.154E+00    0.196E-01
RMM:   3    -0.452115057125E+02    0.97916E-03   -0.44958E-03  1125   0.400E-01    0.926E-02
RMM:   4    -0.452114652000E+02    0.40512E-04   -0.11541E-03  1036   0.335E-01    0.531E-02
RMM:   5    -0.452115197521E+02   -0.54552E-04   -0.20725E-04  1123   0.771E-02    0.166E-02
RMM:   6    -0.452115333812E+02   -0.13629E-04   -0.13806E-05   573   0.431E-02    0.399E-03
RMM:   7    -0.452115396424E+02   -0.62612E-05   -0.67018E-06   570   0.258E-02
   4 F= -.45211540E+02 E0= -.45211540E+02  d E =-.261456E-02
 trial-energy change:   -0.002615  1 .order   -0.002749   -0.003696   -0.001801
 step:   1.6958(harm=  1.6958)  dis= 0.01134  next Energy=   -45.212530 (dE=-0.361E-02)
 bond charge predicted
       N       E                     dE             d eps       ncg     rms          rms(c)
DAV:   1    -0.452184233564E+02   -0.68900E-02   -0.34394E-01  1376   0.634E+00    0.519E-01
RMM:   2    -0.452132073592E+02    0.52160E-02   -0.25481E-02  1094   0.147E+00    0.186E-01
RMM:   3    -0.452123592464E+02    0.84811E-03   -0.44630E-03  1141   0.399E-01    0.874E-02
RMM:   4    -0.452123310921E+02    0.28154E-04   -0.10182E-03  1058   0.304E-01    0.504E-02
RMM:   5    -0.452123791838E+02   -0.48092E-04   -0.17791E-04  1091   0.736E-02    0.146E-02
RMM:   6    -0.452123925756E+02   -0.13392E-04   -0.14071E-05   576   0.428E-02    0.481E-03
RMM:   7    -0.452124000568E+02   -0.74812E-05   -0.64499E-06   570   0.243E-02
   5 F= -.45212400E+02 E0= -.45212400E+02  d E =-.347498E-02
 curvature:  -0.91 expect dE=-0.402E-02 dE for cont linesearch -0.566E-05
 trial: gam= 1.02362 g(F)=  0.139E-03 g(S)=  0.428E-02 ort = 0.169E-03 (trialstep = 0.495E+00)
 search vector abs. value=  0.955E-02
 bond charge predicted
       N       E                     dE             d eps       ncg     rms          rms(c)
DAV:   1    -0.452207537773E+02   -0.83612E-02   -0.32682E-01  1328   0.496E+00    0.451E-01
RMM:   2    -0.452159045675E+02    0.48492E-02   -0.31626E-02  1118   0.135E+00    0.192E-01
RMM:   3    -0.452147056533E+02    0.11989E-02   -0.23532E-03  1183   0.356E-01    0.957E-02
RMM:   4    -0.452145239571E+02    0.18170E-03   -0.87870E-04  1076   0.205E-01    0.310E-02
RMM:   5    -0.452145413677E+02   -0.17411E-04   -0.20968E-04  1131   0.104E-01    0.161E-02
RMM:   6    -0.452145477183E+02   -0.63507E-05   -0.23657E-05   617   0.391E-02
   6 F= -.45214548E+02 E0= -.45214548E+02  d E =-.214766E-02
 ZBRENT: can't locate minimum, use default step
 trial-energy change:   -0.002148  1 .order   -0.002259   -0.002272   -0.002246
 step:   1.9799(harm= 43.5741)  dis= 0.01612  next Energy=   -45.312388 (dE=-0.100E+00)
 bond charge predicted
       N       E                     dE             d eps       ncg     rms          rms(c)
DAV:   1    -0.452763591929E+02   -0.61818E-01   -0.29654E+00  1288   0.150E+01    0.136E+00
RMM:   2    -0.452318959221E+02    0.44463E-01   -0.28367E-01  1119   0.407E+00    0.575E-01
RMM:   3    -0.452215431674E+02    0.10353E-01   -0.21663E-02  1200   0.107E+00    0.287E-01
RMM:   4    -0.452198846557E+02    0.16585E-02   -0.78247E-03  1084   0.607E-01    0.924E-02
RMM:   5    -0.452199968204E+02   -0.11216E-03   -0.18000E-03  1160   0.312E-01    0.477E-02
RMM:   6    -0.452200358273E+02   -0.39007E-04   -0.29381E-04  1114   0.114E-01    0.154E-02
RMM:   7    -0.452200422422E+02   -0.64149E-05   -0.61174E-05   762   0.528E-02
   7 F= -.45220042E+02 E0= -.45220042E+02  d E =-.764219E-02
 curvature:  -3.07 expect dE=-0.576E-02 dE for cont linesearch -0.376E-02
 ZBRENT: increasing intervall
 opt :   4.9498  next Energy=   -45.226872 (dE=-0.145E-01)
 bond charge predicted
       N       E                     dE             d eps       ncg     rms          rms(c)
DAV:   1    -0.454563786010E+02   -0.23634E+00   -0.12111E+01  1296   0.308E+01    0.275E+00
RMM:   2    -0.452733412204E+02    0.18304E+00   -0.11584E+00  1126   0.826E+00    0.115E+00
RMM:   3    -0.452331753255E+02    0.40166E-01   -0.90247E-02  1207   0.219E+00    0.571E-01
RMM:   4    -0.452266199973E+02    0.65553E-02   -0.32197E-02  1087   0.126E+00    0.184E-01
RMM:   5    -0.452271020268E+02   -0.48203E-03   -0.71473E-03  1168   0.610E-01    0.931E-02
RMM:   6    -0.452271972453E+02   -0.95219E-04   -0.11940E-03  1231   0.228E-01    0.346E-02
RMM:   7    -0.452272298206E+02   -0.32575E-04   -0.26177E-04  1072   0.945E-02    0.127E-02
RMM:   8    -0.452272333203E+02   -0.34998E-05   -0.54366E-05   775   0.486E-02
   8 F= -.45227233E+02 E0= -.45227233E+02  d E =-.148333E-01
 curvature:  -5.58 expect dE=-0.454E-02 dE for cont linesearch -0.171E-02
 ZBRENT: increasing intervall
 opt :  10.8896  next Energy=   -45.227231 (dE=-0.148E-01)
 bond charge predicted
       N       E                     dE             d eps       ncg     rms          rms(c)
DAV:   1    -0.461790275961E+02   -0.95180E+00   -0.50481E+01  1296   0.646E+01    0.565E+00
RMM:   2    -0.454014563334E+02    0.77757E+00   -0.48297E+00  1133   0.170E+01    0.233E+00
RMM:   3    -0.452515001291E+02    0.14996E+00   -0.39520E-01  1208   0.459E+00    0.113E+00
RMM:   4    -0.452272488781E+02    0.24251E-01   -0.14089E-01  1114   0.269E+00    0.433E-01
RMM:   5    -0.452295734936E+02   -0.23246E-02   -0.30934E-02  1250   0.116E+00    0.179E-01
RMM:   6    -0.452291384622E+02    0.43503E-03   -0.46026E-03  1274   0.417E-01    0.108E-01
RMM:   7    -0.452294696059E+02   -0.33114E-03   -0.12317E-03  1238   0.197E-01    0.325E-02
RMM:   8    -0.452294661118E+02    0.34940E-05   -0.33043E-04  1169   0.120E-01    0.198E-02
RMM:   9    -0.452294738061E+02   -0.76943E-05   -0.46145E-05   760   0.470E-02
   9 F= -.45229474E+02 E0= -.45229474E+02  d E =-.170737E-01
 curvature:   0.01 expect dE= 0.848E-04 dE for cont linesearch  0.144E-06
 trial: gam= 3.34172 g(F)=  0.375E-02 g(S)=  0.654E-02 ort =-0.409E-03 (trialstep = 0.215E+00)
 search vector abs. value=  0.114E+00
 bond charge predicted
       N       E                     dE             d eps       ncg     rms          rms(c)
DAV:   1    -0.452373397530E+02   -0.78736E-02   -0.50371E-01  1304   0.594E+00    0.490E-01
RMM:   2    -0.452321306920E+02    0.52091E-02   -0.36935E-02  1096   0.162E+00    0.199E-01
RMM:   3    -0.452310262453E+02    0.11044E-02   -0.34052E-03  1194   0.407E-01    0.103E-01
RMM:   4    -0.452308839070E+02    0.14234E-03   -0.90309E-04  1094   0.239E-01    0.392E-02
RMM:   5    -0.452309138580E+02   -0.29951E-04   -0.25396E-04  1145   0.115E-01    0.180E-02
RMM:   6    -0.452309235929E+02   -0.97350E-05   -0.27600E-05   638   0.488E-02
  10 F= -.45230924E+02 E0= -.45230924E+02  d E =-.144979E-02
 trial-energy change:   -0.001450  1 .order   -0.001586   -0.001920   -0.001251
 step:   0.6171(harm=  0.6171)  dis= 0.02094  next Energy=   -45.232227 (dE=-0.275E-02)
 bond charge predicted
       N       E                     dE             d eps       ncg     rms          rms(c)
DAV:   1    -0.452543766756E+02   -0.23463E-01   -0.17589E+00  1320   0.111E+01    0.921E-01
RMM:   2    -0.452359061074E+02    0.18471E-01   -0.13229E-01  1099   0.304E+00    0.376E-01
RMM:   3    -0.452319431533E+02    0.39630E-02   -0.11996E-02  1202   0.763E-01    0.193E-01
RMM:   4    -0.452314205001E+02    0.52265E-03   -0.31787E-03  1102   0.451E-01    0.739E-02
RMM:   5    -0.452315066902E+02   -0.86190E-04   -0.89608E-04  1212   0.216E-01    0.332E-02
RMM:   6    -0.452315277015E+02   -0.21011E-04   -0.12657E-04   980   0.903E-02    0.932E-03
RMM:   7    -0.452315310443E+02   -0.33428E-05   -0.22897E-05   611   0.435E-02
  11 F= -.45231531E+02 E0= -.45231531E+02  d E =-.205724E-02
 curvature:  -3.95 expect dE=-0.197E-01 dE for cont linesearch -0.672E-04
 trial: gam= 0.47012 g(F)=  0.164E-03 g(S)=  0.482E-02 ort =-0.139E-02 (trialstep = 0.296E+00)
 search vector abs. value=  0.289E-01
 bond charge predicted
       N       E                     dE             d eps       ncg     rms          rms(c)
DAV:   1    -0.452442009997E+02   -0.12673E-01   -0.48993E-01  1344   0.869E+00    0.717E-01
RMM:   2    -0.452341650661E+02    0.10036E-01   -0.50586E-02  1063   0.206E+00    0.249E-01
RMM:   3    -0.452324146585E+02    0.17504E-02   -0.60871E-03  1204   0.495E-01    0.114E-01
RMM:   4    -0.452322734431E+02    0.14122E-03   -0.15108E-03  1054   0.372E-01    0.543E-02
RMM:   5    -0.452323453860E+02   -0.71943E-04   -0.34272E-04  1184   0.115E-01    0.228E-02
RMM:   6    -0.452323635922E+02   -0.18206E-04   -0.31415E-05   660   0.550E-02    0.455E-03
RMM:   7    -0.452323722226E+02   -0.86304E-05   -0.14122E-05   596   0.427E-02
  12 F= -.45232372E+02 E0= -.45232372E+02  d E =-.841178E-03
 trial-energy change:   -0.000841  1 .order   -0.000881   -0.001281   -0.000482
 step:   0.4739(harm=  0.4739)  dis= 0.00689  next Energy=   -45.232557 (dE=-0.103E-02)
 bond charge predicted
       N       E                     dE             d eps       ncg     rms          rms(c)
DAV:   1    -0.452368145830E+02   -0.44510E-02   -0.17853E-01  1344   0.525E+00    0.433E-01
RMM:   2    -0.452331420042E+02    0.36726E-02   -0.18501E-02  1061   0.125E+00    0.150E-01
RMM:   3    -0.452325007785E+02    0.64123E-03   -0.22455E-03  1213   0.298E-01    0.697E-02
RMM:   4    -0.452324558066E+02    0.44972E-04   -0.53285E-04  1049   0.223E-01    0.325E-02
RMM:   5    -0.452324873242E+02   -0.31518E-04   -0.11783E-04   946   0.713E-02    0.136E-02
RMM:   6    -0.452324994486E+02   -0.12124E-04   -0.13683E-05   569   0.437E-02    0.284E-03
RMM:   7    -0.452325030322E+02   -0.35836E-05   -0.66697E-06   565   0.300E-02
  13 F= -.45232503E+02 E0= -.45232503E+02  d E =-.971988E-03
 curvature:  -1.58 expect dE=-0.280E-03 dE for cont linesearch -0.472E-06
 trial: gam=-0.12744 g(F)=  0.591E-04 g(S)=  0.118E-03 ort = 0.929E-04 (trialstep = 0.331E+00)
 search vector abs. value=  0.623E-03
 bond charge predicted
       N       E                     dE             d eps       ncg     rms          rms(c)
DAV:   1    -0.452325364874E+02   -0.37039E-04   -0.40672E-03  1192   0.358E-01    0.251E-02
RMM:   2    -0.452325492536E+02   -0.12766E-04   -0.30218E-04   996   0.131E-01    0.837E-03
RMM:   3    -0.452325490618E+02    0.19180E-06   -0.31655E-05   645   0.457E-02
  14 F= -.45232549E+02 E0= -.45232549E+02  d E =-.460296E-04
 trial-energy change:   -0.000046  1 .order   -0.000034   -0.000055   -0.000013
 step:   0.4351(harm=  0.4351)  dis= 0.00117  next Energy=   -45.232539 (dE=-0.360E-04)
 bond charge predicted
       N       E                     dE             d eps       ncg     rms          rms(c)
DAV:   1    -0.452325546144E+02   -0.53608E-05   -0.41362E-04  1232   0.106E-01    0.742E-03
RMM:   2    -0.452325549520E+02   -0.33752E-06   -0.23500E-05   592   0.400E-02
  15 F= -.45232555E+02 E0= -.45232555E+02  d E =-.519198E-04
 curvature:  -0.82 expect dE=-0.355E-04 dE for cont linesearch -0.987E-06
 trial: gam= 0.24284 g(F)=  0.505E-08 g(S)=  0.433E-04 ort = 0.274E-04 (trialstep = 0.352E+00)
 search vector abs. value=  0.934E-04
 reached required accuracy - stopping structural energy minimisation
 writing wavefunctions
