<?xml version="1.0" encoding="ISO-8859-1"?>
<modeling>
 <generator>
  <i name="program" type="string">vasp </i>
  <i name="version" type="string">5.4.4.18Apr17-6-g9f103f2a35  </i>
  <i name="subversion" type="string">(build Nov 26 2018 16:29:41) complex            parallel </i>
  <i name="platform" type="string">LinuxIFC </i>
  <i name="date" type="string">2019 07 02 </i>
  <i name="time" type="string">14:04:28 </i>
 </generator>
 <incar>
  <i type="string" name="SYSTEM"> 2H-MoS2</i>
  <i type="string" name="PREC">accurate</i>
  <i type="string" name="ALGO"> Fast</i>
  <i type="logical" name="ADDGRID"> T  </i>
  <i type="int" name="IBRION">     2</i>
  <i name="EDIFF">      0.00001000</i>
  <i type="int" name="NSW">  1000</i>
  <i type="int" name="ISIF">     3</i>
  <i type="int" name="ISYM">     2</i>
  <i name="POTIM">      0.50000000</i>
  <i type="logical" name="LREAL"> F  </i>
  <i type="int" name="ISMEAR">     0</i>
  <i name="SIGMA">      0.05000000</i>
  <i type="int" name="NWRITE">     1</i>
  <i type="logical" name="LWAVE"> T  </i>
  <i type="logical" name="LCHARG"> F  </i>
  <v type="int" name="KPOINT_BSE">    -1     0     0     0</v>
 </incar>
 <structure name="primitive_cell" >
  <crystal>
   <varray name="basis" >
    <v>       3.19031600       0.00000000       0.00000000 </v>
    <v>      -1.59515800       2.76289400       0.00000000 </v>
    <v>       0.00000000       0.00000000      14.87900400 </v>
   </varray>
   <i name="volume">    131.15105418 </i>
   <varray name="rec_basis" >
    <v>       0.31344857       0.18096966       0.00000000 </v>
    <v>       0.00000000       0.36193933       0.00000000 </v>
    <v>       0.00000000       0.00000000       0.06720880 </v>
   </varray>
  </crystal>
  <varray name="positions" >
   <v>      -0.33333300       0.33333300       0.25000000 </v>
   <v>       0.33333300      -0.33333300       0.14482600 </v>
   <v>       0.33333300      -0.33333300       0.35517400 </v>
   <v>      -0.33333300       0.33333300      -0.35517400 </v>
   <v>      -0.33333300       0.33333300      -0.14482600 </v>
   <v>       0.33333300      -0.33333300      -0.25000000 </v>
  </varray>
 </structure>
 <varray name="primitive_index" >
  <v type="int" >        1 </v>
  <v type="int" >        3 </v>
  <v type="int" >        5 </v>
  <v type="int" >        4 </v>
  <v type="int" >        6 </v>
  <v type="int" >        2 </v>
 </varray>
 <kpoints>
  <generation param="Gamma">
   <v type="int" name="divisions">       5        5        5 </v>
   <v name="usershift">      0.00000000       0.00000000       0.00000000 </v>
   <v name="genvec1">      0.20000000       0.00000000       0.00000000 </v>
   <v name="genvec2">      0.00000000       0.20000000       0.00000000 </v>
   <v name="genvec3">      0.00000000       0.00000000       0.20000000 </v>
   <v name="shift">      0.00000000       0.00000000       0.00000000 </v>
  </generation>
  <varray name="kpointlist" >
   <v>       0.00000000       0.00000000       0.00000000 </v>
   <v>       0.20000000       0.00000000       0.00000000 </v>
   <v>       0.40000000       0.00000000       0.00000000 </v>
   <v>       0.20000000       0.20000000       0.00000000 </v>
   <v>       0.40000000       0.20000000       0.00000000 </v>
   <v>       0.00000000       0.00000000       0.20000000 </v>
   <v>       0.20000000       0.00000000       0.20000000 </v>
   <v>       0.40000000       0.00000000       0.20000000 </v>
   <v>       0.20000000       0.20000000       0.20000000 </v>
   <v>       0.40000000       0.20000000       0.20000000 </v>
   <v>       0.00000000       0.00000000       0.40000000 </v>
   <v>       0.20000000       0.00000000       0.40000000 </v>
   <v>       0.40000000       0.00000000       0.40000000 </v>
   <v>       0.20000000       0.20000000       0.40000000 </v>
   <v>       0.40000000       0.20000000       0.40000000 </v>
  </varray>
  <varray name="weights" >
   <v>       0.00800000 </v>
   <v>       0.04800000 </v>
   <v>       0.04800000 </v>
   <v>       0.04800000 </v>
   <v>       0.04800000 </v>
   <v>       0.01600000 </v>
   <v>       0.09600000 </v>
   <v>       0.09600000 </v>
   <v>       0.09600000 </v>
   <v>       0.09600000 </v>
   <v>       0.01600000 </v>
   <v>       0.09600000 </v>
   <v>       0.09600000 </v>
   <v>       0.09600000 </v>
   <v>       0.09600000 </v>
  </varray>
 </kpoints>
 <parameters>
  <separator name="general" >
   <i type="string" name="SYSTEM">2H-MoS2</i>
   <i type="logical" name="LCOMPAT"> F  </i>
  </separator>
  <separator name="electronic" >
   <i type="string" name="PREC">accura</i>
   <i name="ENMAX">    344.91400000</i>
   <i name="ENAUG">    964.74100000</i>
   <i name="EDIFF">      0.00001000</i>
   <i type="int" name="IALGO">    68</i>
   <i type="int" name="IWAVPR">    11</i>
   <i type="int" name="NBANDS">    32</i>
   <i name="NELECT">     52.00000000</i>
   <i type="int" name="TURBO">     0</i>
   <i type="int" name="IRESTART">     0</i>
   <i type="int" name="NREBOOT">     0</i>
   <i type="int" name="NMIN">     0</i>
   <i name="EREF">      0.00000000</i>
   <separator name="electronic smearing" >
    <i type="int" name="ISMEAR">     0</i>
    <i name="SIGMA">      0.05000000</i>
    <i name="KSPACING">      0.50000000</i>
    <i type="logical" name="KGAMMA"> T  </i>
   </separator>
   <separator name="electronic projectors" >
    <i type="logical" name="LREAL"> F  </i>
    <v name="ROPT">      0.00000000      0.00000000</v>
    <i type="int" name="LMAXPAW">  -100</i>
    <i type="int" name="LMAXMIX">     2</i>
    <i type="logical" name="NLSPLINE"> F  </i>
   </separator>
   <separator name="electronic startup" >
    <i type="int" name="ISTART">     0</i>
    <i type="int" name="ICHARG">     2</i>
    <i type="int" name="INIWAV">     1</i>
   </separator>
   <separator name="electronic spin" >
    <i type="int" name="ISPIN">     1</i>
    <i type="logical" name="LNONCOLLINEAR"> F  </i>
    <v name="MAGMOM">      1.00000000      1.00000000      1.00000000      1.00000000      1.00000000      1.00000000</v>
    <i name="NUPDOWN">     -1.00000000</i>
    <i type="logical" name="LSORBIT"> F  </i>
    <v name="SAXIS">      0.00000000      0.00000000      1.00000000</v>
    <i type="logical" name="LSPIRAL"> F  </i>
    <v name="QSPIRAL">      0.00000000      0.00000000      0.00000000</v>
    <i type="logical" name="LZEROZ"> F  </i>
   </separator>
   <separator name="electronic exchange-correlation" >
    <i type="logical" name="LASPH"> F  </i>
    <i type="logical" name="LMETAGGA"> F  </i>
   </separator>
   <separator name="electronic convergence" >
    <i type="int" name="NELM">    60</i>
    <i type="int" name="NELMDL">    -5</i>
    <i type="int" name="NELMIN">     2</i>
    <i name="ENINI">    344.91400000</i>
    <separator name="electronic convergence detail" >
     <i type="logical" name="LDIAG"> T  </i>
     <i type="logical" name="LSUBROT"> F  </i>
     <i name="WEIMIN">      0.00100000</i>
     <i name="EBREAK">      0.00000008</i>
     <i name="DEPER">      0.30000000</i>
     <i type="int" name="NRMM">     4</i>
     <i name="TIME">      0.40000000</i>
    </separator>
   </separator>
   <separator name="electronic mixer" >
    <i name="AMIX">      0.40000000</i>
    <i name="BMIX">      1.00000000</i>
    <i name="AMIN">      0.10000000</i>
    <i name="AMIX_MAG">      1.60000000</i>
    <i name="BMIX_MAG">      1.00000000</i>
    <separator name="electronic mixer details" >
     <i type="int" name="IMIX">     4</i>
     <i type="logical" name="MIXFIRST"> F  </i>
     <i type="int" name="MAXMIX">   -45</i>
     <i name="WC">    100.00000000</i>
     <i type="int" name="INIMIX">     1</i>
     <i type="int" name="MIXPRE">     1</i>
     <i type="int" name="MREMOVE">     5</i>
    </separator>
   </separator>
   <separator name="electronic dipolcorrection" >
    <i type="logical" name="LDIPOL"> F  </i>
    <i type="logical" name="LMONO"> F  </i>
    <i type="int" name="IDIPOL">     0</i>
    <i name="EPSILON">      1.00000000</i>
    <v name="DIPOL">   -100.00000000   -100.00000000   -100.00000000</v>
    <i name="EFIELD">      0.00000000</i>
   </separator>
  </separator>
  <separator name="grids" >
   <i type="int" name="NGX">    20</i>
   <i type="int" name="NGY">    20</i>
   <i type="int" name="NGZ">    90</i>
   <i type="int" name="NGXF">    40</i>
   <i type="int" name="NGYF">    40</i>
   <i type="int" name="NGZF">   180</i>
   <i type="logical" name="ADDGRID"> T  </i>
  </separator>
  <separator name="ionic" >
   <i type="int" name="NSW">  1000</i>
   <i type="int" name="IBRION">     2</i>
   <i type="int" name="MDALGO">     0</i>
   <i type="int" name="ISIF">     3</i>
   <i name="PSTRESS">      0.00000000</i>
   <i name="EDIFFG">      0.00010000</i>
   <i type="int" name="NFREE">     1</i>
   <i name="POTIM">      0.50000000</i>
   <i name="SMASS">     -3.00000000</i>
   <i name="SCALEE">      1.00000000</i>
  </separator>
  <separator name="ionic md" >
   <i name="TEBEG">      0.00010000</i>
   <i name="TEEND">      0.00010000</i>
   <i type="int" name="NBLOCK">     1</i>
   <i type="int" name="KBLOCK">  1000</i>
   <i type="int" name="NPACO">   256</i>
   <i name="APACO">     16.00000000</i>
  </separator>
  <separator name="symmetry" >
   <i type="int" name="ISYM">     2</i>
   <i name="SYMPREC">      0.00001000</i>
  </separator>
  <separator name="dos" >
   <i type="int" name="LORBIT">     0</i>
   <v name="RWIGS">     -1.00000000     -1.00000000</v>
   <i type="int" name="NEDOS">   301</i>
   <i name="EMIN">     10.00000000</i>
   <i name="EMAX">    -10.00000000</i>
   <i name="EFERMI">      0.00000000</i>
  </separator>
  <separator name="writing" >
   <i type="int" name="NWRITE">     1</i>
   <i type="logical" name="LWAVE"> T  </i>
   <i type="logical" name="LDOWNSAMPLE"> F  </i>
   <i type="logical" name="LCHARG"> F  </i>
   <i type="logical" name="LPARD"> F  </i>
   <i type="logical" name="LVTOT"> F  </i>
   <i type="logical" name="LVHAR"> F  </i>
   <i type="logical" name="LELF"> F  </i>
   <i type="logical" name="LOPTICS"> F  </i>
   <v name="STM">      0.00000000      0.00000000      0.00000000      0.00000000      0.00000000      0.00000000      0.00000000</v>
  </separator>
  <separator name="performance" >
   <i type="int" name="NPAR">     2</i>
   <i type="int" name="NSIM">     4</i>
   <i type="int" name="NBLK">    -1</i>
   <i type="logical" name="LPLANE"> T  </i>
   <i type="logical" name="LSCALAPACK"> T  </i>
   <i type="logical" name="LSCAAWARE"> F  </i>
   <i type="logical" name="LSCALU"> F  </i>
   <i type="logical" name="LASYNC"> F  </i>
   <i type="logical" name="LORBITALREAL"> F  </i>
  </separator>
  <separator name="miscellaneous" >
   <i type="int" name="IDIOT">     3</i>
   <i type="int" name="ISPECIAL">     0</i>
   <i type="logical" name="LMUSIC"> F  </i>
   <v name="POMASS">     95.94000000     32.06600000</v>
   <v name="DARWINR">      0.00000000      0.00000000</v>
   <v name="DARWINV">      1.00000000      1.00000000</v>
   <i type="logical" name="LCORR"> T  </i>
  </separator>
  <i type="logical" name="GGA_COMPAT"> T  </i>
  <i type="logical" name="LBERRY"> F  </i>
  <i type="int" name="ICORELEVEL">     0</i>
  <i type="logical" name="LDAU"> F  </i>
  <i type="int" name="I_CONSTRAINED_M">     0</i>
  <separator name="electronic exchange-correlation" >
   <i type="string" name="GGA">--</i>
   <i type="int" name="VOSKOWN">     0</i>
   <i type="logical" name="LHFCALC"> F  </i>
   <i type="string" name="PRECFOCK"></i>
   <i type="logical" name="LSYMGRAD"> F  </i>
   <i type="logical" name="LHFONE"> F  </i>
   <i type="logical" name="LRHFCALC"> F  </i>
   <i type="logical" name="LTHOMAS"> F  </i>
   <i type="logical" name="LMODELHF"> F  </i>
   <i name="ENCUT4O">     -1.00000000</i>
   <i type="int" name="EXXOEP">     0</i>
   <i type="int" name="FOURORBIT">     0</i>
   <i name="AEXX">      0.00000000</i>
   <i name="HFALPHA">      0.00000000</i>
   <i name="MCALPHA">      0.00000000</i>
   <i name="ALDAX">      1.00000000</i>
   <i name="AGGAX">      1.00000000</i>
   <i name="ALDAC">      1.00000000</i>
   <i name="AGGAC">      1.00000000</i>
   <i type="int" name="NKREDX">     1</i>
   <i type="int" name="NKREDY">     1</i>
   <i type="int" name="NKREDZ">     1</i>
   <i type="logical" name="SHIFTRED"> F  </i>
   <i type="logical" name="ODDONLY"> F  </i>
   <i type="logical" name="EVENONLY"> F  </i>
   <i type="int" name="LMAXFOCK">     0</i>
   <i type="int" name="NMAXFOCKAE">     0</i>
   <i type="logical" name="LFOCKAEDFT"> F  </i>
   <i name="HFSCREEN">      0.00000000</i>
   <i name="HFSCREENC">      0.00000000</i>
   <i type="int" name="NBANDSGWLOW">     0</i>
  </separator>
  <separator name="vdW DFT" >
   <i type="logical" name="LUSE_VDW"> F  </i>
   <i name="Zab_VDW">     -0.84910000</i>
   <i name="PARAM1">      0.12340000</i>
   <i name="PARAM2">      1.00000000</i>
   <i name="PARAM3">      0.00000000</i>
  </separator>
  <separator name="model GW" >
   <i type="int" name="MODEL_GW">     0</i>
   <i name="MODEL_EPS0">     13.11510542</i>
   <i name="MODEL_ALPHA">      1.00000000</i>
  </separator>
  <separator name="linear response parameters" >
   <i type="logical" name="LEPSILON"> F  </i>
   <i type="logical" name="LRPA"> F  </i>
   <i type="logical" name="LNABLA"> F  </i>
   <i type="logical" name="LVEL"> F  </i>
   <i type="int" name="KINTER">     0</i>
   <i name="CSHIFT">      0.10000000</i>
   <i name="OMEGAMAX">     -1.00000000</i>
   <i name="DEG_THRESHOLD">      0.00200000</i>
   <i name="RTIME">     -0.10000000</i>
   <i name="WPLASMAI">      0.00000000</i>
   <v name="DFIELD">      0.00000000      0.00000000      0.00000000</v>
   <v name="WPLASMA">      0.00000000      0.00000000      0.00000000      0.00000000      0.00000000      0.00000000      0.00000000      0.00000000      0.00000000</v>
  </separator>
  <separator name="orbital magnetization" >
   <i type="logical" name="NUCIND"> F  </i>
   <v name="MAGPOS">      0.00000000      0.00000000      0.00000000</v>
   <i type="logical" name="LNICSALL"> T  </i>
   <i type="logical" name="ORBITALMAG"> F  </i>
   <i type="logical" name="LMAGBLOCH"> F  </i>
   <i type="logical" name="LCHIMAG"> F  </i>
   <i type="logical" name="LGAUGE"> T  </i>
   <i type="int" name="MAGATOM">     0</i>
   <v name="MAGDIPOL">      0.00000000      0.00000000      0.00000000</v>
   <v name="AVECCONST">      0.00000000      0.00000000      0.00000000</v>
  </separator>
  <separator name="response functions" >
   <i type="logical" name="LADDER"> F  </i>
   <i type="logical" name="LRPAFORCE"> F  </i>
   <i type="logical" name="LFXC"> F  </i>
   <i type="logical" name="LHARTREE"> T  </i>
   <i type="int" name="IBSE">     0</i>
   <v type="int" name="KPOINT">    -1     0     0     0</v>
   <i type="logical" name="LTCTE"> F  </i>
   <i type="logical" name="LTETE"> F  </i>
   <i type="logical" name="LTRIPLET"> F  </i>
   <i type="logical" name="LFXCEPS"> F  </i>
   <i type="logical" name="LFXHEG"> F  </i>
   <i type="int" name="NATURALO">     2</i>
   <i type="logical" name="L2ORDER"> F  </i>
   <i type="logical" name="LMP2LT"> F  </i>
   <i type="logical" name="LUSEW"> F  </i>
   <i name="ENCUTGW">     -2.00000000</i>
   <i name="ENCUTGWSOFT">     -2.00000000</i>
   <i name="ENCUTLF">     -1.00000000</i>
   <i type="int" name="LMAXMP2">    -1</i>
   <i name="SCISSOR">      0.00000000</i>
   <i type="int" name="NOMEGA">     0</i>
   <i type="int" name="NOMEGAR">     0</i>
   <i type="int" name="NBANDSGW">    -1</i>
   <i type="int" name="NBANDSO">    -1</i>
   <i type="int" name="NBANDSV">    -1</i>
   <i type="int" name="NELM">     1</i>
   <i type="int" name="NELMHF">     1</i>
   <i type="int" name="DIM">     3</i>
   <i type="int" name="ANTIRES">     0</i>
   <i name="OMEGAMAX">    -30.00000000</i>
   <i name="OMEGAMIN">    -30.00000000</i>
   <i name="OMEGATL">   -200.00000000</i>
   <i type="int" name="OMEGAGRID">   140</i>
   <i name="CSHIFT">     -0.10000000</i>
   <i type="logical" name="SELFENERGY"> F  </i>
   <i type="logical" name="LSPECTRAL"> F  </i>
   <i type="logical" name="LSPECTRALGW"> F  </i>
   <i type="logical" name="LSINGLES"> F  </i>
   <i type="logical" name="LFERMIGW"> F  </i>
   <i type="logical" name="ODDONLYGW"> F  </i>
   <i type="logical" name="EVENONLYGW"> F  </i>
   <i type="int" name="NKREDLFX">     1</i>
   <i type="int" name="NKREDLFY">     1</i>
   <i type="int" name="NKREDLFZ">     1</i>
   <i type="int" name="MAXMEM">  2800</i>
   <i type="int" name="TELESCOPE">     0</i>
   <i type="int" name="TAUPAR">     1</i>
   <i type="int" name="OMEGAPAR">    -1</i>
   <i name="LAMBDA">      1.00000000</i>
  </separator>
  <separator name="External order field" >
   <i name="OFIELD_KAPPA">      0.00000000</i>
   <v name="OFIELD_K">      0.00000000      0.00000000      0.00000000</v>
   <i name="OFIELD_Q6_NEAR">      0.00000000</i>
   <i name="OFIELD_Q6_FAR">      0.00000000</i>
   <i name="OFIELD_A">      0.00000000</i>
  </separator>
 </parameters>
 <atominfo>
  <atoms>       6 </atoms>
  <types>       2 </types>
  <array name="atoms" >
   <dimension dim="1">ion</dimension>
   <field type="string">element</field>
   <field type="int">atomtype</field>
   <set>
    <rc><c>Mo</c><c>   1</c></rc>
    <rc><c>Mo</c><c>   1</c></rc>
    <rc><c>S </c><c>   2</c></rc>
    <rc><c>S </c><c>   2</c></rc>
    <rc><c>S </c><c>   2</c></rc>
    <rc><c>S </c><c>   2</c></rc>
   </set>
  </array>
  <array name="atomtypes" >
   <dimension dim="1">type</dimension>
   <field type="int">atomspertype</field>
   <field type="string">element</field>
   <field>mass</field>
   <field>valence</field>
   <field type="string">pseudopotential</field>
   <set>
    <rc><c>   2</c><c>Mo</c><c>     95.94000000</c><c>     14.00000000</c><c>  PAW_PBE Mo_sv_GW 05Dec2013            </c></rc>
    <rc><c>   4</c><c>S </c><c>     32.06600000</c><c>      6.00000000</c><c>  PAW_PBE S_GW 19Mar2012                </c></rc>
   </set>
  </array>
 </atominfo>
 <structure name="initialpos" >
  <crystal>
   <varray name="basis" >
    <v>       3.19031600       0.00000000       0.00000000 </v>
    <v>      -1.59515800       2.76289400       0.00000000 </v>
    <v>       0.00000000       0.00000000      14.87900400 </v>
   </varray>
   <i name="volume">    131.15105418 </i>
   <varray name="rec_basis" >
    <v>       0.31344857       0.18096966       0.00000000 </v>
    <v>       0.00000000       0.36193933       0.00000000 </v>
    <v>       0.00000000       0.00000000       0.06720880 </v>
   </varray>
  </crystal>
  <varray name="positions" >
   <v>       0.66666700       0.33333300       0.25000000 </v>
   <v>       0.33333300       0.66666700       0.75000000 </v>
   <v>       0.33333300       0.66666700       0.14482600 </v>
   <v>       0.66666700       0.33333300       0.64482600 </v>
   <v>       0.33333300       0.66666700       0.35517400 </v>
   <v>       0.66666700       0.33333300       0.85517400 </v>
  </varray>
 </structure>
 <calculation>
  <scstep>
   <time name="dav">    0.53    0.53</time>
   <time name="total">    0.58    0.59</time>
   <energy>
    <i name="alphaZ">    145.80791439 </i>
    <i name="ewald">  -2213.96869372 </i>
    <i name="hartreedc">  -2463.21000708 </i>
    <i name="XCdc">    167.14707076 </i>
    <i name="pawpsdc">   3905.22371462 </i>
    <i name="pawaedc">  -3865.63498383 </i>
    <i name="eentropy">     -0.00716641 </i>
    <i name="bandstr">   -143.77895610 </i>
    <i name="atom">   4830.08457801 </i>
    <i name="e_fr_energy">    361.66347063 </i>
    <i name="e_wo_entrp">    361.67063704 </i>
    <i name="e_0_energy">    361.66705384 </i>
   </energy>
  </scstep>
  <scstep>
   <time name="dav">    0.45    0.45</time>
   <time name="total">    0.45    0.45</time>
   <energy>
    <i name="e_fr_energy">    -20.82517236 </i>
    <i name="e_wo_entrp">    -20.82517236 </i>
    <i name="e_0_energy">    -20.82517236 </i>
   </energy>
  </scstep>
  <scstep>
   <time name="dav">    0.38    0.39</time>
   <time name="total">    0.38    0.39</time>
   <energy>
    <i name="e_fr_energy">    -50.91937067 </i>
    <i name="e_wo_entrp">    -50.91937067 </i>
    <i name="e_0_energy">    -50.91937067 </i>
   </energy>
  </scstep>
  <scstep>
   <time name="dav">    0.42    0.43</time>
   <time name="total">    0.43    0.43</time>
   <energy>
    <i name="e_fr_energy">    -52.46190473 </i>
    <i name="e_wo_entrp">    -52.46190473 </i>
    <i name="e_0_energy">    -52.46190473 </i>
   </energy>
  </scstep>
  <scstep>
   <time name="dav">    0.43    0.44</time>
   <time name="total">    0.47    0.48</time>
   <energy>
    <i name="e_fr_energy">    -52.52142819 </i>
    <i name="e_wo_entrp">    -52.52142819 </i>
    <i name="e_0_energy">    -52.52142819 </i>
   </energy>
  </scstep>
  <scstep>
   <time name="diag">    0.07    0.08</time>
   <time name="diis">    0.25    0.25</time>
   <time name="orth">    0.00    0.01</time>
   <time name="total">    0.41    0.41</time>
   <energy>
    <i name="e_fr_energy">    -46.79539269 </i>
    <i name="e_wo_entrp">    -46.79539269 </i>
    <i name="e_0_energy">    -46.79539269 </i>
   </energy>
  </scstep>
  <scstep>
   <time name="diag">    0.08    0.08</time>
   <time name="diis">    0.26    0.26</time>
   <time name="orth">    0.01    0.01</time>
   <time name="total">    0.41    0.41</time>
   <energy>
    <i name="e_fr_energy">    -45.27668773 </i>
    <i name="e_wo_entrp">    -45.27668773 </i>
    <i name="e_0_energy">    -45.27668773 </i>
   </energy>
  </scstep>
  <scstep>
   <time name="diag">    0.07    0.08</time>
   <time name="diis">    0.24    0.24</time>
   <time name="orth">    0.01    0.01</time>
   <time name="total">    0.39    0.39</time>
   <energy>
    <i name="e_fr_energy">    -45.26060013 </i>
    <i name="e_wo_entrp">    -45.26060013 </i>
    <i name="e_0_energy">    -45.26060013 </i>
   </energy>
  </scstep>
  <scstep>
   <time name="diag">    0.07    0.08</time>
   <time name="diis">    0.26    0.26</time>
   <time name="orth">    0.01    0.01</time>
   <time name="total">    0.41    0.41</time>
   <energy>
    <i name="e_fr_energy">    -45.20357570 </i>
    <i name="e_wo_entrp">    -45.20357570 </i>
    <i name="e_0_energy">    -45.20357570 </i>
   </energy>
  </scstep>
  <scstep>
   <time name="diag">    0.07    0.08</time>
   <time name="diis">    0.24    0.24</time>
   <time name="orth">    0.01    0.01</time>
   <time name="total">    0.39    0.39</time>
   <energy>
    <i name="e_fr_energy">    -45.20205953 </i>
    <i name="e_wo_entrp">    -45.20205953 </i>
    <i name="e_0_energy">    -45.20205953 </i>
   </energy>
  </scstep>
  <scstep>
   <time name="diag">    0.07    0.08</time>
   <time name="diis">    0.26    0.26</time>
   <time name="orth">    0.01    0.01</time>
   <time name="total">    0.42    0.42</time>
   <energy>
    <i name="e_fr_energy">    -45.20212590 </i>
    <i name="e_wo_entrp">    -45.20212590 </i>
    <i name="e_0_energy">    -45.20212590 </i>
   </energy>
  </scstep>
  <scstep>
   <time name="diag">    0.07    0.08</time>
   <time name="diis">    0.27    0.27</time>
   <time name="orth">    0.01    0.01</time>
   <time name="total">    0.42    0.42</time>
   <energy>
    <i name="e_fr_energy">    -45.20223264 </i>
    <i name="e_wo_entrp">    -45.20223264 </i>
    <i name="e_0_energy">    -45.20223264 </i>
   </energy>
  </scstep>
  <scstep>
   <time name="diag">    0.07    0.08</time>
   <time name="diis">    0.24    0.24</time>
   <time name="orth">    0.01    0.01</time>
   <time name="total">    0.39    0.39</time>
   <energy>
    <i name="e_fr_energy">    -45.20237919 </i>
    <i name="e_wo_entrp">    -45.20237919 </i>
    <i name="e_0_energy">    -45.20237919 </i>
   </energy>
  </scstep>
  <scstep>
   <time name="diag">    0.07    0.08</time>
   <time name="diis">    0.22    0.22</time>
   <time name="orth">    0.01    0.01</time>
   <time name="total">    0.37    0.37</time>
   <energy>
    <i name="e_fr_energy">    -45.20240601 </i>
    <i name="e_wo_entrp">    -45.20240601 </i>
    <i name="e_0_energy">    -45.20240601 </i>
   </energy>
  </scstep>
  <scstep>
   <time name="diag">    0.07    0.08</time>
   <time name="diis">    0.17    0.17</time>
   <time name="orth">    0.01    0.01</time>
   <time name="total">    0.32    0.32</time>
   <energy>
    <i name="e_fr_energy">    -45.20241868 </i>
    <i name="e_wo_entrp">    -45.20241868 </i>
    <i name="e_0_energy">    -45.20241868 </i>
   </energy>
  </scstep>
  <scstep>
   <time name="diag">    0.07    0.08</time>
   <time name="diis">    0.14    0.14</time>
   <time name="orth">    0.01    0.01</time>
   <time name="total">    0.25    0.26</time>
   <energy>
    <i name="alphaZ">    145.80791439 </i>
    <i name="ewald">  -2213.96869372 </i>
    <i name="hartreedc">  -2400.28352750 </i>
    <i name="XCdc">    165.28910537 </i>
    <i name="pawpsdc">   3847.78186611 </i>
    <i name="pawaedc">  -3809.30356096 </i>
    <i name="eentropy">     -0.00000000 </i>
    <i name="bandstr">   -610.61010484 </i>
    <i name="atom">   4830.08457801 </i>
    <i name="e_fr_energy">    -45.20242314 </i>
    <i name="e_wo_entrp">    -45.20242314 </i>
    <i name="e_0_energy">    -45.20242314 </i>
   </energy>
  </scstep>
  <structure>
   <crystal>
    <varray name="basis" >
     <v>       3.19031600       0.00000000       0.00000000 </v>
     <v>      -1.59515800       2.76289400       0.00000000 </v>
     <v>       0.00000000       0.00000000      14.87900400 </v>
    </varray>
    <i name="volume">    131.15105418 </i>
    <varray name="rec_basis" >
     <v>       0.31344857       0.18096966       0.00000000 </v>
     <v>       0.00000000       0.36193933       0.00000000 </v>
     <v>       0.00000000       0.00000000       0.06720880 </v>
    </varray>
   </crystal>
   <varray name="positions" >
    <v>       0.66666700       0.33333300       0.25000000 </v>
    <v>       0.33333300       0.66666700       0.75000000 </v>
    <v>       0.33333300       0.66666700       0.14482600 </v>
    <v>       0.66666700       0.33333300       0.64482600 </v>
    <v>       0.33333300       0.66666700       0.35517400 </v>
    <v>       0.66666700       0.33333300       0.85517400 </v>
   </varray>
  </structure>
  <varray name="forces" >
   <v>       0.00000000      -0.00000000       0.00000000 </v>
   <v>      -0.00000000       0.00000000       0.00000000 </v>
   <v>       0.00000000      -0.00000000       0.04477149 </v>
   <v>      -0.00000000       0.00000000       0.04477149 </v>
   <v>       0.00000000      -0.00000000      -0.04477149 </v>
   <v>       0.00000000      -0.00000000      -0.04477149 </v>
  </varray>
  <varray name="stress" >
   <v>     -15.14732859      -0.00000000       0.00000000 </v>
   <v>       0.00000000     -15.14732089      -0.00000000 </v>
   <v>      -0.00000000       0.00000000     -14.95957562 </v>
  </varray>
  <energy>
   <i name="e_fr_energy">    -45.20242314 </i>
   <i name="e_wo_entrp">    -45.20242314 </i>
   <i name="e_0_energy">     -0.00000000 </i>
  </energy>
  <time name="totalsc">    7.17    7.20</time>
 </calculation>
 <calculation>
  <scstep>
   <time name="dav">    0.39    0.39</time>
   <time name="total">    0.46    0.46</time>
   <energy>
    <i name="alphaZ">    150.23851553 </i>
    <i name="ewald">  -2231.51334637 </i>
    <i name="hartreedc">  -2428.72365033 </i>
    <i name="XCdc">    167.08592265 </i>
    <i name="pawpsdc">   3847.80358633 </i>
    <i name="pawaedc">  -3809.32545527 </i>
    <i name="eentropy">     -0.00000000 </i>
    <i name="bandstr">   -571.24870663 </i>
    <i name="atom">   4830.08457801 </i>
    <i name="e_fr_energy">    -45.59855609 </i>
    <i name="e_wo_entrp">    -45.59855609 </i>
    <i name="e_0_energy">    -45.59855609 </i>
   </energy>
  </scstep>
  <scstep>
   <time name="diag">    0.07    0.08</time>
   <time name="diis">    0.22    0.22</time>
   <time name="orth">    0.01    0.01</time>
   <time name="total">    0.38    0.38</time>
   <energy>
    <i name="e_fr_energy">    -45.23934145 </i>
    <i name="e_wo_entrp">    -45.23934145 </i>
    <i name="e_0_energy">    -45.23934145 </i>
   </energy>
  </scstep>
  <scstep>
   <time name="diag">    0.08    0.08</time>
   <time name="diis">    0.23    0.23</time>
   <time name="orth">    0.01    0.01</time>
   <time name="total">    0.38    0.38</time>
   <energy>
    <i name="e_fr_energy">    -45.18727199 </i>
    <i name="e_wo_entrp">    -45.18727199 </i>
    <i name="e_0_energy">    -45.18727199 </i>
   </energy>
  </scstep>
  <scstep>
   <time name="diag">    0.07    0.08</time>
   <time name="diis">    0.20    0.21</time>
   <time name="orth">    0.01    0.01</time>
   <time name="total">    0.36    0.36</time>
   <energy>
    <i name="e_fr_energy">    -45.18342825 </i>
    <i name="e_wo_entrp">    -45.18342825 </i>
    <i name="e_0_energy">    -45.18342825 </i>
   </energy>
  </scstep>
  <scstep>
   <time name="diag">    0.07    0.08</time>
   <time name="diis">    0.26    0.26</time>
   <time name="orth">    0.01    0.01</time>
   <time name="total">    0.42    0.42</time>
   <energy>
    <i name="e_fr_energy">    -45.18533403 </i>
    <i name="e_wo_entrp">    -45.18533403 </i>
    <i name="e_0_energy">    -45.18533403 </i>
   </energy>
  </scstep>
  <scstep>
   <time name="diag">    0.07    0.08</time>
   <time name="diis">    0.25    0.25</time>
   <time name="orth">    0.01    0.01</time>
   <time name="total">    0.40    0.41</time>
   <energy>
    <i name="e_fr_energy">    -45.18564939 </i>
    <i name="e_wo_entrp">    -45.18564939 </i>
    <i name="e_0_energy">    -45.18564939 </i>
   </energy>
  </scstep>
  <scstep>
   <time name="diag">    0.07    0.08</time>
   <time name="diis">    0.25    0.25</time>
   <time name="orth">    0.01    0.01</time>
   <time name="total">    0.41    0.41</time>
   <energy>
    <i name="e_fr_energy">    -45.18578530 </i>
    <i name="e_wo_entrp">    -45.18578530 </i>
    <i name="e_0_energy">    -45.18578530 </i>
   </energy>
  </scstep>
  <scstep>
   <time name="diag">    0.07    0.08</time>
   <time name="diis">    0.19    0.19</time>
   <time name="orth">    0.01    0.01</time>
   <time name="total">    0.35    0.35</time>
   <energy>
    <i name="e_fr_energy">    -45.18578298 </i>
    <i name="e_wo_entrp">    -45.18578298 </i>
    <i name="e_0_energy">    -45.18578298 </i>
   </energy>
  </scstep>
  <scstep>
   <time name="diag">    0.07    0.08</time>
   <time name="diis">    0.13    0.13</time>
   <time name="orth">    0.01    0.01</time>
   <time name="total">    0.24    0.24</time>
   <energy>
    <i name="alphaZ">    150.23851553 </i>
    <i name="ewald">  -2231.51334637 </i>
    <i name="hartreedc">  -2401.08200868 </i>
    <i name="XCdc">    165.97586542 </i>
    <i name="pawpsdc">   3880.32873770 </i>
    <i name="pawaedc">  -3841.89893594 </i>
    <i name="eentropy">     -0.00000000 </i>
    <i name="bandstr">   -597.31919508 </i>
    <i name="atom">   4830.08457801 </i>
    <i name="e_fr_energy">    -45.18578941 </i>
    <i name="e_wo_entrp">    -45.18578941 </i>
    <i name="e_0_energy">    -45.18578941 </i>
   </energy>
  </scstep>
  <structure>
   <crystal>
    <varray name="basis" >
     <v>       3.15850987      -0.00000000       0.00000000 </v>
     <v>      -1.57925493       2.73534910      -0.00000000 </v>
     <v>      -0.00000000       0.00000000      14.73250513 </v>
    </varray>
    <i name="volume">    127.28335083 </i>
    <varray name="rec_basis" >
     <v>       0.31660499       0.18279202       0.00000000 </v>
     <v>       0.00000000       0.36558405       0.00000000 </v>
     <v>       0.00000000       0.00000000       0.06787712 </v>
    </varray>
   </crystal>
   <varray name="positions" >
    <v>       0.66666700       0.33333300       0.25000000 </v>
    <v>       0.33333300       0.66666700       0.75000000 </v>
    <v>       0.33333300       0.66666700       0.14497116 </v>
    <v>       0.66666700       0.33333300       0.64497116 </v>
    <v>       0.33333300       0.66666700       0.35502884 </v>
    <v>       0.66666700       0.33333300       0.85502884 </v>
   </varray>
  </structure>
  <varray name="forces" >
   <v>       0.00000000      -0.00000000      -0.00000000 </v>
   <v>      -0.00000000       0.00000000      -0.00000000 </v>
   <v>      -0.00000000       0.00000000      -0.50094512 </v>
   <v>      -0.00000000       0.00000000      -0.50094512 </v>
   <v>      -0.00000000      -0.00000000       0.50094512 </v>
   <v>      -0.00000000      -0.00000000       0.50094512 </v>
  </varray>
  <varray name="stress" >
   <v>      26.56540775       0.00000000       0.00000000 </v>
   <v>       0.00000000      26.56539452       0.00000000 </v>
   <v>       0.00000000      -0.00000000      31.18644646 </v>
  </varray>
  <energy>
   <i name="e_fr_energy">    -45.18578941 </i>
   <i name="e_wo_entrp">    -45.18578941 </i>
   <i name="e_0_energy">     -0.00000000 </i>
  </energy>
  <time name="totalsc">    4.07    4.09</time>
 </calculation>
 <calculation>
  <scstep>
   <time name="dav">    0.38    0.38</time>
   <time name="total">    0.45    0.46</time>
   <energy>
    <i name="alphaZ">    147.32338415 </i>
    <i name="ewald">  -2220.03877125 </i>
    <i name="hartreedc">  -2382.59793844 </i>
    <i name="XCdc">    164.80400799 </i>
    <i name="pawpsdc">   3880.61082820 </i>
    <i name="pawaedc">  -3842.17777449 </i>
    <i name="eentropy">     -0.00000000 </i>
    <i name="bandstr">   -623.39995564 </i>
    <i name="atom">   4830.08457801 </i>
    <i name="e_fr_energy">    -45.39164149 </i>
    <i name="e_wo_entrp">    -45.39164149 </i>
    <i name="e_0_energy">    -45.39164149 </i>
   </energy>
  </scstep>
  <scstep>
   <time name="diag">    0.07    0.08</time>
   <time name="diis">    0.22    0.22</time>
   <time name="orth">    0.01    0.01</time>
   <time name="total">    0.37    0.37</time>
   <energy>
    <i name="e_fr_energy">    -45.24332020 </i>
    <i name="e_wo_entrp">    -45.24332020 </i>
    <i name="e_0_energy">    -45.24332020 </i>
   </energy>
  </scstep>
  <scstep>
   <time name="diag">    0.07    0.08</time>
   <time name="diis">    0.22    0.22</time>
   <time name="orth">    0.01    0.01</time>
   <time name="total">    0.38    0.38</time>
   <energy>
    <i name="e_fr_energy">    -45.21119802 </i>
    <i name="e_wo_entrp">    -45.21119802 </i>
    <i name="e_0_energy">    -45.21119802 </i>
   </energy>
  </scstep>
  <scstep>
   <time name="diag">    0.07    0.08</time>
   <time name="diis">    0.20    0.20</time>
   <time name="orth">    0.01    0.01</time>
   <time name="total">    0.35    0.36</time>
   <energy>
    <i name="e_fr_energy">    -45.20821298 </i>
    <i name="e_wo_entrp">    -45.20821298 </i>
    <i name="e_0_energy">    -45.20821298 </i>
   </energy>
  </scstep>
  <scstep>
   <time name="diag">    0.08    0.08</time>
   <time name="diis">    0.25    0.25</time>
   <time name="orth">    0.01    0.01</time>
   <time name="total">    0.40    0.40</time>
   <energy>
    <i name="e_fr_energy">    -45.20890694 </i>
    <i name="e_wo_entrp">    -45.20890694 </i>
    <i name="e_0_energy">    -45.20890694 </i>
   </energy>
  </scstep>
  <scstep>
   <time name="diag">    0.07    0.08</time>
   <time name="diis">    0.24    0.24</time>
   <time name="orth">    0.01    0.01</time>
   <time name="total">    0.39    0.40</time>
   <energy>
    <i name="e_fr_energy">    -45.20891551 </i>
    <i name="e_wo_entrp">    -45.20891551 </i>
    <i name="e_0_energy">    -45.20891551 </i>
   </energy>
  </scstep>
  <scstep>
   <time name="diag">    0.07    0.08</time>
   <time name="diis">    0.21    0.21</time>
   <time name="orth">    0.01    0.01</time>
   <time name="total">    0.37    0.37</time>
   <energy>
    <i name="e_fr_energy">    -45.20891960 </i>
    <i name="e_wo_entrp">    -45.20891960 </i>
    <i name="e_0_energy">    -45.20891960 </i>
   </energy>
  </scstep>
  <scstep>
   <time name="diag">    0.07    0.08</time>
   <time name="diis">    0.19    0.19</time>
   <time name="orth">    0.01    0.01</time>
   <time name="total">    0.30    0.30</time>
   <energy>
    <i name="alphaZ">    147.32338415 </i>
    <i name="ewald">  -2220.03877125 </i>
    <i name="hartreedc">  -2400.61057960 </i>
    <i name="XCdc">    165.52653162 </i>
    <i name="pawpsdc">   3859.12544358 </i>
    <i name="pawaedc">  -3820.64795661 </i>
    <i name="eentropy">     -0.00000000 </i>
    <i name="bandstr">   -605.97155497 </i>
    <i name="atom">   4830.08457801 </i>
    <i name="e_fr_energy">    -45.20892508 </i>
    <i name="e_wo_entrp">    -45.20892508 </i>
    <i name="e_0_energy">    -45.20892508 </i>
   </energy>
  </scstep>
  <structure>
   <crystal>
    <varray name="basis" >
     <v>       3.17929347      -0.00000000       0.00000000 </v>
     <v>      -1.58964673       2.75334822      -0.00000000 </v>
     <v>      -0.00000000       0.00000000      14.82823429 </v>
    </varray>
    <i name="volume">    129.80194414 </i>
    <varray name="rec_basis" >
     <v>       0.31453529       0.18159708       0.00000000 </v>
     <v>       0.00000000       0.36319416       0.00000000 </v>
     <v>       0.00000000       0.00000000       0.06743891 </v>
    </varray>
   </crystal>
   <varray name="positions" >
    <v>       0.66666700       0.33333300       0.25000000 </v>
    <v>       0.33333300       0.66666700       0.75000000 </v>
    <v>       0.33333300       0.66666700       0.14487536 </v>
    <v>       0.66666700       0.33333300       0.64487536 </v>
    <v>       0.33333300       0.66666700       0.35512464 </v>
    <v>       0.66666700       0.33333300       0.85512464 </v>
   </varray>
  </structure>
  <varray name="forces" >
   <v>      -0.00000000      -0.00000000       0.00000000 </v>
   <v>       0.00000000       0.00000000       0.00000000 </v>
   <v>       0.00000000       0.00000000      -0.14207473 </v>
   <v>       0.00000000       0.00000000      -0.14207473 </v>
   <v>       0.00000000       0.00000000       0.14207473 </v>
   <v>       0.00000000      -0.00000000       0.14207473 </v>
  </varray>
  <varray name="stress" >
   <v>      -1.55714148      -0.00000000       0.00000000 </v>
   <v>       0.00000000      -1.55714069       0.00000000 </v>
   <v>       0.00000000       0.00000000      -0.03749618 </v>
  </varray>
  <energy>
   <i name="e_fr_energy">    -45.20892508 </i>
   <i name="e_wo_entrp">    -45.20892508 </i>
   <i name="e_0_energy">     -0.00000000 </i>
  </energy>
  <time name="totalsc">    3.68    3.71</time>
 </calculation>
 <calculation>
  <scstep>
   <time name="dav">    0.39    0.39</time>
   <time name="total">    0.46    0.46</time>
   <energy>
    <i name="alphaZ">    147.87854278 </i>
    <i name="ewald">  -2232.10105755 </i>
    <i name="hartreedc">  -2394.52870494 </i>
    <i name="XCdc">    165.66662064 </i>
    <i name="pawpsdc">   3858.55015406 </i>
    <i name="pawaedc">  -3820.08434490 </i>
    <i name="eentropy">     -0.00000000 </i>
    <i name="bandstr">   -600.68405112 </i>
    <i name="atom">   4830.08457801 </i>
    <i name="e_fr_energy">    -45.21826302 </i>
    <i name="e_wo_entrp">    -45.21826302 </i>
    <i name="e_0_energy">    -45.21826302 </i>
   </energy>
  </scstep>
  <scstep>
   <time name="diag">    0.07    0.08</time>
   <time name="diis">    0.22    0.22</time>
   <time name="orth">    0.01    0.01</time>
   <time name="total">    0.37    0.37</time>
   <energy>
    <i name="e_fr_energy">    -45.21248487 </i>
    <i name="e_wo_entrp">    -45.21248487 </i>
    <i name="e_0_energy">    -45.21248487 </i>
   </energy>
  </scstep>
  <scstep>
   <time name="diag">    0.08    0.08</time>
   <time name="diis">    0.22    0.22</time>
   <time name="orth">    0.01    0.01</time>
   <time name="total">    0.38    0.38</time>
   <energy>
    <i name="e_fr_energy">    -45.21150571 </i>
    <i name="e_wo_entrp">    -45.21150571 </i>
    <i name="e_0_energy">    -45.21150571 </i>
   </energy>
  </scstep>
  <scstep>
   <time name="diag">    0.11    0.14</time>
   <time name="diis">    0.21    0.22</time>
   <time name="orth">    0.01    0.01</time>
   <time name="total">    0.40    0.43</time>
   <energy>
    <i name="e_fr_energy">    -45.21146520 </i>
    <i name="e_wo_entrp">    -45.21146520 </i>
    <i name="e_0_energy">    -45.21146520 </i>
   </energy>
  </scstep>
  <scstep>
   <time name="diag">    0.07    0.08</time>
   <time name="diis">    0.23    0.23</time>
   <time name="orth">    0.01    0.01</time>
   <time name="total">    0.38    0.38</time>
   <energy>
    <i name="e_fr_energy">    -45.21151975 </i>
    <i name="e_wo_entrp">    -45.21151975 </i>
    <i name="e_0_energy">    -45.21151975 </i>
   </energy>
  </scstep>
  <scstep>
   <time name="diag">    0.07    0.08</time>
   <time name="diis">    0.12    0.12</time>
   <time name="orth">    0.01    0.01</time>
   <time name="total">    0.28    0.28</time>
   <energy>
    <i name="e_fr_energy">    -45.21153338 </i>
    <i name="e_wo_entrp">    -45.21153338 </i>
    <i name="e_0_energy">    -45.21153338 </i>
   </energy>
  </scstep>
  <scstep>
   <time name="diag">    0.07    0.08</time>
   <time name="diis">    0.12    0.12</time>
   <time name="orth">    0.01    0.01</time>
   <time name="total">    0.23    0.23</time>
   <energy>
    <i name="alphaZ">    147.87854278 </i>
    <i name="ewald">  -2232.10105755 </i>
    <i name="hartreedc">  -2391.23833837 </i>
    <i name="XCdc">    165.52760298 </i>
    <i name="pawpsdc">   3857.83917874 </i>
    <i name="pawaedc">  -3819.36854709 </i>
    <i name="eentropy">     -0.00000000 </i>
    <i name="bandstr">   -603.83349914 </i>
    <i name="atom">   4830.08457801 </i>
    <i name="e_fr_energy">    -45.21153964 </i>
    <i name="e_wo_entrp">    -45.21153964 </i>
    <i name="e_0_energy">    -45.21153964 </i>
   </energy>
  </scstep>
  <structure>
   <crystal>
    <varray name="basis" >
     <v>       3.17438959      -0.00000000      -0.00000000 </v>
     <v>      -1.58719479       2.74910133       0.00000000 </v>
     <v>       0.00000000       0.00000000      14.81824419 </v>
    </varray>
    <i name="volume">    129.31464782 </i>
    <varray name="rec_basis" >
     <v>       0.31502119       0.18187762      -0.00000000 </v>
     <v>       0.00000000       0.36375523      -0.00000000 </v>
     <v>      -0.00000000      -0.00000000       0.06748438 </v>
    </varray>
   </crystal>
   <varray name="positions" >
    <v>       0.66666700       0.33333300       0.25000000 </v>
    <v>       0.33333300       0.66666700       0.75000000 </v>
    <v>       0.33333300       0.66666700       0.14448319 </v>
    <v>       0.66666700       0.33333300       0.64448319 </v>
    <v>       0.33333300       0.66666700       0.35551681 </v>
    <v>       0.66666700       0.33333300       0.85551681 </v>
   </varray>
  </structure>
  <varray name="forces" >
   <v>       0.00000000       0.00000000      -0.00000000 </v>
   <v>       0.00000000      -0.00000000      -0.00000000 </v>
   <v>      -0.00000000      -0.00000000      -0.08177114 </v>
   <v>      -0.00000000      -0.00000000      -0.08177114 </v>
   <v>      -0.00000000       0.00000000       0.08177114 </v>
   <v>       0.00000000       0.00000000       0.08177114 </v>
  </varray>
  <varray name="stress" >
   <v>       1.20213433       0.00000000       0.00000000 </v>
   <v>       0.00000000       1.20213372       0.00000000 </v>
   <v>       0.00000000      -0.00000000      -3.65281754 </v>
  </varray>
  <energy>
   <i name="e_fr_energy">    -45.21153964 </i>
   <i name="e_wo_entrp">    -45.21153964 </i>
   <i name="e_0_energy">     -0.00000000 </i>
  </energy>
  <time name="totalsc">    3.17    3.21</time>
 </calculation>
 <calculation>
  <scstep>
   <time name="dav">    0.39    0.39</time>
   <time name="total">    0.46    0.46</time>
   <energy>
    <i name="alphaZ">    148.40904088 </i>
    <i name="ewald">  -2243.59172168 </i>
    <i name="hartreedc">  -2385.52900916 </i>
    <i name="XCdc">    165.66418523 </i>
    <i name="pawpsdc">   3857.88012516 </i>
    <i name="pawaedc">  -3819.40758768 </i>
    <i name="eentropy">     -0.00000000 </i>
    <i name="bandstr">   -598.72803410 </i>
    <i name="atom">   4830.08457801 </i>
    <i name="e_fr_energy">    -45.21842336 </i>
    <i name="e_wo_entrp">    -45.21842336 </i>
    <i name="e_0_energy">    -45.21842336 </i>
   </energy>
  </scstep>
  <scstep>
   <time name="diag">    0.07    0.08</time>
   <time name="diis">    0.22    0.22</time>
   <time name="orth">    0.01    0.01</time>
   <time name="total">    0.37    0.37</time>
   <energy>
    <i name="e_fr_energy">    -45.21320736 </i>
    <i name="e_wo_entrp">    -45.21320736 </i>
    <i name="e_0_energy">    -45.21320736 </i>
   </energy>
  </scstep>
  <scstep>
   <time name="diag">    0.07    0.08</time>
   <time name="diis">    0.23    0.23</time>
   <time name="orth">    0.01    0.01</time>
   <time name="total">    0.38    0.38</time>
   <energy>
    <i name="e_fr_energy">    -45.21235925 </i>
    <i name="e_wo_entrp">    -45.21235925 </i>
    <i name="e_0_energy">    -45.21235925 </i>
   </energy>
  </scstep>
  <scstep>
   <time name="diag">    0.07    0.08</time>
   <time name="diis">    0.21    0.21</time>
   <time name="orth">    0.01    0.01</time>
   <time name="total">    0.36    0.36</time>
   <energy>
    <i name="e_fr_energy">    -45.21233109 </i>
    <i name="e_wo_entrp">    -45.21233109 </i>
    <i name="e_0_energy">    -45.21233109 </i>
   </energy>
  </scstep>
  <scstep>
   <time name="diag">    0.07    0.08</time>
   <time name="diis">    0.22    0.22</time>
   <time name="orth">    0.01    0.01</time>
   <time name="total">    0.37    0.37</time>
   <energy>
    <i name="e_fr_energy">    -45.21237918 </i>
    <i name="e_wo_entrp">    -45.21237918 </i>
    <i name="e_0_energy">    -45.21237918 </i>
   </energy>
  </scstep>
  <scstep>
   <time name="diag">    0.07    0.08</time>
   <time name="diis">    0.12    0.12</time>
   <time name="orth">    0.01    0.01</time>
   <time name="total">    0.28    0.28</time>
   <energy>
    <i name="e_fr_energy">    -45.21239258 </i>
    <i name="e_wo_entrp">    -45.21239258 </i>
    <i name="e_0_energy">    -45.21239258 </i>
   </energy>
  </scstep>
  <scstep>
   <time name="diag">    0.07    0.08</time>
   <time name="diis">    0.12    0.12</time>
   <time name="orth">    0.01    0.01</time>
   <time name="total">    0.23    0.24</time>
   <energy>
    <i name="alphaZ">    148.40904088 </i>
    <i name="ewald">  -2243.59172168 </i>
    <i name="hartreedc">  -2382.40105051 </i>
    <i name="XCdc">    165.53078369 </i>
    <i name="pawpsdc">   3857.04863025 </i>
    <i name="pawaedc">  -3818.56893911 </i>
    <i name="eentropy">     -0.00000000 </i>
    <i name="bandstr">   -601.72372158 </i>
    <i name="atom">   4830.08457801 </i>
    <i name="e_fr_energy">    -45.21240006 </i>
    <i name="e_wo_entrp">    -45.21240006 </i>
    <i name="e_0_energy">    -45.21240006 </i>
   </energy>
  </scstep>
  <structure>
   <crystal>
    <varray name="basis" >
     <v>       3.16972703      -0.00000000      -0.00000000 </v>
     <v>      -1.58486352       2.74506344       0.00000000 </v>
     <v>       0.00000000       0.00000000      14.80874572 </v>
    </varray>
    <i name="volume">    128.85240392 </i>
    <varray name="rec_basis" >
     <v>       0.31548458       0.18214515      -0.00000000 </v>
     <v>       0.00000000       0.36429031      -0.00000000 </v>
     <v>      -0.00000000      -0.00000000       0.06752766 </v>
    </varray>
   </crystal>
   <varray name="positions" >
    <v>       0.66666700       0.33333300       0.25000000 </v>
    <v>       0.33333300       0.66666700       0.75000000 </v>
    <v>       0.33333300       0.66666700       0.14411007 </v>
    <v>       0.66666700       0.33333300       0.64411007 </v>
    <v>       0.33333300       0.66666700       0.35588993 </v>
    <v>       0.66666700       0.33333300       0.85588993 </v>
   </varray>
  </structure>
  <varray name="forces" >
   <v>      -0.00000000       0.00000000       0.00000000 </v>
   <v>       0.00000000       0.00000000       0.00000000 </v>
   <v>       0.00000000      -0.00000000      -0.02681531 </v>
   <v>      -0.00000000       0.00000000      -0.02681531 </v>
   <v>      -0.00000000      -0.00000000       0.02681531 </v>
   <v>      -0.00000000      -0.00000000       0.02681531 </v>
  </varray>
  <varray name="stress" >
   <v>       3.56930780       0.00000000       0.00000000 </v>
   <v>      -0.00000000       3.56930601      -0.00000000 </v>
   <v>       0.00000000      -0.00000000      -7.53544265 </v>
  </varray>
  <energy>
   <i name="e_fr_energy">    -45.21240006 </i>
   <i name="e_wo_entrp">    -45.21240006 </i>
   <i name="e_0_energy">     -0.00000000 </i>
  </energy>
  <time name="totalsc">    3.13    3.14</time>
 </calculation>
 <calculation>
  <scstep>
   <time name="dav">    0.37    0.37</time>
   <time name="total">    0.44    0.45</time>
   <energy>
    <i name="alphaZ">    148.75400186 </i>
    <i name="ewald">  -2261.37990272 </i>
    <i name="hartreedc">  -2369.89377558 </i>
    <i name="XCdc">    165.61291488 </i>
    <i name="pawpsdc">   3856.96075430 </i>
    <i name="pawaedc">  -3818.48156602 </i>
    <i name="eentropy">     -0.00000000 </i>
    <i name="bandstr">   -596.87775851 </i>
    <i name="atom">   4830.08457801 </i>
    <i name="e_fr_energy">    -45.22075378 </i>
    <i name="e_wo_entrp">    -45.22075378 </i>
    <i name="e_0_energy">    -45.22075378 </i>
   </energy>
  </scstep>
  <scstep>
   <time name="diag">    0.08    0.08</time>
   <time name="diis">    0.22    0.22</time>
   <time name="orth">    0.01    0.01</time>
   <time name="total">    0.37    0.38</time>
   <energy>
    <i name="e_fr_energy">    -45.21590457 </i>
    <i name="e_wo_entrp">    -45.21590457 </i>
    <i name="e_0_energy">    -45.21590457 </i>
   </energy>
  </scstep>
  <scstep>
   <time name="diag">    0.07    0.08</time>
   <time name="diis">    0.24    0.24</time>
   <time name="orth">    0.01    0.01</time>
   <time name="total">    0.39    0.39</time>
   <energy>
    <i name="e_fr_energy">    -45.21470565 </i>
    <i name="e_wo_entrp">    -45.21470565 </i>
    <i name="e_0_energy">    -45.21470565 </i>
   </energy>
  </scstep>
  <scstep>
   <time name="diag">    0.07    0.08</time>
   <time name="diis">    0.22    0.22</time>
   <time name="orth">    0.01    0.01</time>
   <time name="total">    0.37    0.37</time>
   <energy>
    <i name="e_fr_energy">    -45.21452396 </i>
    <i name="e_wo_entrp">    -45.21452396 </i>
    <i name="e_0_energy">    -45.21452396 </i>
   </energy>
  </scstep>
  <scstep>
   <time name="diag">    0.07    0.08</time>
   <time name="diis">    0.23    0.23</time>
   <time name="orth">    0.01    0.01</time>
   <time name="total">    0.38    0.38</time>
   <energy>
    <i name="e_fr_energy">    -45.21454137 </i>
    <i name="e_wo_entrp">    -45.21454137 </i>
    <i name="e_0_energy">    -45.21454137 </i>
   </energy>
  </scstep>
  <scstep>
   <time name="diag">    0.07    0.08</time>
   <time name="diis">    0.13    0.13</time>
   <time name="orth">    0.01    0.01</time>
   <time name="total">    0.25    0.25</time>
   <energy>
    <i name="alphaZ">    148.75400186 </i>
    <i name="ewald">  -2261.37990272 </i>
    <i name="hartreedc">  -2366.28653364 </i>
    <i name="XCdc">    165.52739376 </i>
    <i name="pawpsdc">   3856.65693041 </i>
    <i name="pawaedc">  -3818.17842694 </i>
    <i name="eentropy">     -0.00000000 </i>
    <i name="bandstr">   -600.39258845 </i>
    <i name="atom">   4830.08457801 </i>
    <i name="e_fr_energy">    -45.21454772 </i>
    <i name="e_wo_entrp">    -45.21454772 </i>
    <i name="e_0_energy">    -45.21454772 </i>
   </energy>
  </scstep>
  <structure>
   <crystal>
    <varray name="basis" >
     <v>       3.17049868      -0.00000000       0.00000000 </v>
     <v>      -1.58524934       2.74573171       0.00000000 </v>
     <v>       0.00000000       0.00000000      14.76721334 </v>
    </varray>
    <i name="volume">    128.55359480 </i>
    <varray name="rec_basis" >
     <v>       0.31540780       0.18210082      -0.00000000 </v>
     <v>       0.00000000       0.36420164      -0.00000000 </v>
     <v>      -0.00000000      -0.00000000       0.06771758 </v>
    </varray>
   </crystal>
   <varray name="positions" >
    <v>       0.66666700       0.33333300       0.25000000 </v>
    <v>       0.33333300       0.66666700       0.75000000 </v>
    <v>       0.33333300       0.66666700       0.14383796 </v>
    <v>       0.66666700       0.33333300       0.64383796 </v>
    <v>       0.33333300       0.66666700       0.35616204 </v>
    <v>       0.66666700       0.33333300       0.85616204 </v>
   </varray>
  </structure>
  <varray name="forces" >
   <v>       0.00000000      -0.00000000       0.00000000 </v>
   <v>      -0.00000000       0.00000000       0.00000000 </v>
   <v>       0.00000000      -0.00000000      -0.03025864 </v>
   <v>      -0.00000000      -0.00000000      -0.03025864 </v>
   <v>       0.00000000       0.00000000       0.03025864 </v>
   <v>      -0.00000000      -0.00000000       0.03025864 </v>
  </varray>
  <varray name="stress" >
   <v>       3.24412484       0.00000000       0.00000000 </v>
   <v>      -0.00000000       3.24412321      -0.00000000 </v>
   <v>      -0.00000000      -0.00000000      -7.24953755 </v>
  </varray>
  <energy>
   <i name="e_fr_energy">    -45.21454772 </i>
   <i name="e_wo_entrp">    -45.21454772 </i>
   <i name="e_0_energy">     -0.00000000 </i>
  </energy>
  <time name="totalsc">    2.87    2.89</time>
 </calculation>
 <calculation>
  <scstep>
   <time name="dav">    0.36    0.36</time>
   <time name="total">    0.43    0.43</time>
   <energy>
    <i name="alphaZ">    149.80094589 </i>
    <i name="ewald">  -2314.26969571 </i>
    <i name="hartreedc">  -2329.25630743 </i>
    <i name="XCdc">    165.77776436 </i>
    <i name="pawpsdc">   3856.79500482 </i>
    <i name="pawaedc">  -3818.31288238 </i>
    <i name="eentropy">     -0.00000000 </i>
    <i name="bandstr">   -585.89576677 </i>
    <i name="atom">   4830.08457801 </i>
    <i name="e_fr_energy">    -45.27635919 </i>
    <i name="e_wo_entrp">    -45.27635919 </i>
    <i name="e_0_energy">    -45.27635919 </i>
   </energy>
  </scstep>
  <scstep>
   <time name="diag">    0.08    0.08</time>
   <time name="diis">    0.22    0.22</time>
   <time name="orth">    0.01    0.01</time>
   <time name="total">    0.38    0.38</time>
   <energy>
    <i name="e_fr_energy">    -45.23189592 </i>
    <i name="e_wo_entrp">    -45.23189592 </i>
    <i name="e_0_energy">    -45.23189592 </i>
   </energy>
  </scstep>
  <scstep>
   <time name="diag">    0.07    0.08</time>
   <time name="diis">    0.24    0.24</time>
   <time name="orth">    0.01    0.01</time>
   <time name="total">    0.39    0.39</time>
   <energy>
    <i name="e_fr_energy">    -45.22154317 </i>
    <i name="e_wo_entrp">    -45.22154317 </i>
    <i name="e_0_energy">    -45.22154317 </i>
   </energy>
  </scstep>
  <scstep>
   <time name="diag">    0.07    0.08</time>
   <time name="diis">    0.22    0.22</time>
   <time name="orth">    0.01    0.01</time>
   <time name="total">    0.37    0.37</time>
   <energy>
    <i name="e_fr_energy">    -45.21988466 </i>
    <i name="e_wo_entrp">    -45.21988466 </i>
    <i name="e_0_energy">    -45.21988466 </i>
   </energy>
  </scstep>
  <scstep>
   <time name="diag">    0.08    0.08</time>
   <time name="diis">    0.23    0.23</time>
   <time name="orth">    0.01    0.01</time>
   <time name="total">    0.38    0.39</time>
   <energy>
    <i name="e_fr_energy">    -45.21999682 </i>
    <i name="e_wo_entrp">    -45.21999682 </i>
    <i name="e_0_energy">    -45.21999682 </i>
   </energy>
  </scstep>
  <scstep>
   <time name="diag">    0.07    0.08</time>
   <time name="diis">    0.23    0.23</time>
   <time name="orth">    0.01    0.01</time>
   <time name="total">    0.38    0.38</time>
   <energy>
    <i name="e_fr_energy">    -45.22003583 </i>
    <i name="e_wo_entrp">    -45.22003583 </i>
    <i name="e_0_energy">    -45.22003583 </i>
   </energy>
  </scstep>
  <scstep>
   <time name="diag">    0.07    0.08</time>
   <time name="diis">    0.16    0.16</time>
   <time name="orth">    0.01    0.01</time>
   <time name="total">    0.27    0.27</time>
   <energy>
    <i name="alphaZ">    149.80094589 </i>
    <i name="ewald">  -2314.26969571 </i>
    <i name="hartreedc">  -2318.31247484 </i>
    <i name="XCdc">    165.51580035 </i>
    <i name="pawpsdc">   3856.44896081 </i>
    <i name="pawaedc">  -3817.95877169 </i>
    <i name="eentropy">     -0.00000000 </i>
    <i name="bandstr">   -596.52938507 </i>
    <i name="atom">   4830.08457801 </i>
    <i name="e_fr_energy">    -45.22004224 </i>
    <i name="e_wo_entrp">    -45.22004224 </i>
    <i name="e_0_energy">    -45.22004224 </i>
   </energy>
  </scstep>
  <structure>
   <crystal>
    <varray name="basis" >
     <v>       3.17281363      -0.00000000       0.00000000 </v>
     <v>      -1.58640682       2.74773652      -0.00000000 </v>
     <v>       0.00000000       0.00000000      14.64261620 </v>
    </varray>
    <i name="volume">    127.65514641 </i>
    <varray name="rec_basis" >
     <v>       0.31517767       0.18196796      -0.00000000 </v>
     <v>       0.00000000       0.36393591      -0.00000000 </v>
     <v>      -0.00000000       0.00000000       0.06829381 </v>
    </varray>
   </crystal>
   <varray name="positions" >
    <v>       0.66666700       0.33333300       0.25000000 </v>
    <v>       0.33333300       0.66666700       0.75000000 </v>
    <v>       0.33333300       0.66666700       0.14301932 </v>
    <v>       0.66666700       0.33333300       0.64301932 </v>
    <v>       0.33333300       0.66666700       0.35698068 </v>
    <v>       0.66666700       0.33333300       0.85698068 </v>
   </varray>
  </structure>
  <varray name="forces" >
   <v>       0.00000000       0.00000000      -0.00000000 </v>
   <v>      -0.00000000      -0.00000000      -0.00000000 </v>
   <v>      -0.00000000      -0.00000000      -0.03973219 </v>
   <v>      -0.00000000       0.00000000      -0.03973219 </v>
   <v>       0.00000000      -0.00000000       0.03973219 </v>
   <v>      -0.00000000      -0.00000000       0.03973219 </v>
  </varray>
  <varray name="stress" >
   <v>       2.50004185      -0.00000000       0.00000000 </v>
   <v>       0.00000000       2.50004059       0.00000000 </v>
   <v>       0.00000000       0.00000000      -4.27213289 </v>
  </varray>
  <energy>
   <i name="e_fr_energy">    -45.22004224 </i>
   <i name="e_wo_entrp">    -45.22004224 </i>
   <i name="e_0_energy">     -0.00000000 </i>
  </energy>
  <time name="totalsc">    3.28    3.30</time>
 </calculation>
 <calculation>
  <scstep>
   <time name="dav">    0.37    0.37</time>
   <time name="total">    0.44    0.45</time>
   <energy>
    <i name="alphaZ">    151.95067026 </i>
    <i name="ewald">  -2418.02651575 </i>
    <i name="hartreedc">  -2246.48631901 </i>
    <i name="XCdc">    166.02967273 </i>
    <i name="pawpsdc">   3856.12497238 </i>
    <i name="pawaedc">  -3817.63286265 </i>
    <i name="eentropy">     -0.00000000 </i>
    <i name="bandstr">   -567.50057457 </i>
    <i name="atom">   4830.08457801 </i>
    <i name="e_fr_energy">    -45.45637860 </i>
    <i name="e_wo_entrp">    -45.45637860 </i>
    <i name="e_0_energy">    -45.45637860 </i>
   </energy>
  </scstep>
  <scstep>
   <time name="diag">    0.07    0.08</time>
   <time name="diis">    0.23    0.23</time>
   <time name="orth">    0.01    0.01</time>
   <time name="total">    0.38    0.38</time>
   <energy>
    <i name="e_fr_energy">    -45.27334122 </i>
    <i name="e_wo_entrp">    -45.27334122 </i>
    <i name="e_0_energy">    -45.27334122 </i>
   </energy>
  </scstep>
  <scstep>
   <time name="diag">    0.08    0.08</time>
   <time name="diis">    0.24    0.24</time>
   <time name="orth">    0.01    0.01</time>
   <time name="total">    0.39    0.40</time>
   <energy>
    <i name="e_fr_energy">    -45.23317533 </i>
    <i name="e_wo_entrp">    -45.23317533 </i>
    <i name="e_0_energy">    -45.23317533 </i>
   </energy>
  </scstep>
  <scstep>
   <time name="diag">    0.07    0.08</time>
   <time name="diis">    0.22    0.22</time>
   <time name="orth">    0.01    0.01</time>
   <time name="total">    0.37    0.37</time>
   <energy>
    <i name="e_fr_energy">    -45.22662000 </i>
    <i name="e_wo_entrp">    -45.22662000 </i>
    <i name="e_0_energy">    -45.22662000 </i>
   </energy>
  </scstep>
  <scstep>
   <time name="diag">    0.07    0.08</time>
   <time name="diis">    0.23    0.23</time>
   <time name="orth">    0.01    0.01</time>
   <time name="total">    0.38    0.39</time>
   <energy>
    <i name="e_fr_energy">    -45.22710203 </i>
    <i name="e_wo_entrp">    -45.22710203 </i>
    <i name="e_0_energy">    -45.22710203 </i>
   </energy>
  </scstep>
  <scstep>
   <time name="diag">    0.07    0.08</time>
   <time name="diis">    0.25    0.25</time>
   <time name="orth">    0.01    0.01</time>
   <time name="total">    0.40    0.40</time>
   <energy>
    <i name="e_fr_energy">    -45.22719725 </i>
    <i name="e_wo_entrp">    -45.22719725 </i>
    <i name="e_0_energy">    -45.22719725 </i>
   </energy>
  </scstep>
  <scstep>
   <time name="diag">    0.07    0.08</time>
   <time name="diis">    0.22    0.22</time>
   <time name="orth">    0.01    0.01</time>
   <time name="total">    0.37    0.37</time>
   <energy>
    <i name="e_fr_energy">    -45.22722982 </i>
    <i name="e_wo_entrp">    -45.22722982 </i>
    <i name="e_0_energy">    -45.22722982 </i>
   </energy>
  </scstep>
  <scstep>
   <time name="diag">    0.08    0.08</time>
   <time name="diis">    0.17    0.17</time>
   <time name="orth">    0.01    0.01</time>
   <time name="total">    0.28    0.28</time>
   <energy>
    <i name="alphaZ">    151.95067026 </i>
    <i name="ewald">  -2418.02651575 </i>
    <i name="hartreedc">  -2224.62352844 </i>
    <i name="XCdc">    165.49513339 </i>
    <i name="pawpsdc">   3855.30004994 </i>
    <i name="pawaedc">  -3816.79579981 </i>
    <i name="eentropy">     -0.00000000 </i>
    <i name="bandstr">   -588.61182091 </i>
    <i name="atom">   4830.08457801 </i>
    <i name="e_fr_energy">    -45.22723332 </i>
    <i name="e_wo_entrp">    -45.22723332 </i>
    <i name="e_0_energy">    -45.22723332 </i>
   </energy>
  </scstep>
  <structure>
   <crystal>
    <varray name="basis" >
     <v>       3.17744354      -0.00000000       0.00000000 </v>
     <v>      -1.58872177       2.75174613      -0.00000000 </v>
     <v>       0.00000000       0.00000000      14.39342193 </v>
    </varray>
    <i name="volume">    125.84914332 </i>
    <varray name="rec_basis" >
     <v>       0.31471842       0.18170281      -0.00000000 </v>
     <v>       0.00000000       0.36340562      -0.00000000 </v>
     <v>       0.00000000       0.00000000       0.06947618 </v>
    </varray>
   </crystal>
   <varray name="positions" >
    <v>       0.66666700       0.33333300       0.25000000 </v>
    <v>       0.33333300       0.66666700       0.75000000 </v>
    <v>       0.33333300       0.66666700       0.14136811 </v>
    <v>       0.66666700       0.33333300       0.64136811 </v>
    <v>       0.33333300       0.66666700       0.35863189 </v>
    <v>       0.66666700       0.33333300       0.85863189 </v>
   </varray>
  </structure>
  <varray name="forces" >
   <v>       0.00000000      -0.00000000       0.00000000 </v>
   <v>      -0.00000000       0.00000000       0.00000000 </v>
   <v>       0.00000000      -0.00000000      -0.06300593 </v>
   <v>       0.00000000      -0.00000000      -0.06300593 </v>
   <v>       0.00000000       0.00000000       0.06300593 </v>
   <v>       0.00000000      -0.00000000       0.06300593 </v>
  </varray>
  <varray name="stress" >
   <v>       0.37113918       0.00000000       0.00000000 </v>
   <v>      -0.00000000       0.37113899       0.00000000 </v>
   <v>       0.00000000       0.00000000       0.83451995 </v>
  </varray>
  <energy>
   <i name="e_fr_energy">    -45.22723332 </i>
   <i name="e_wo_entrp">    -45.22723332 </i>
   <i name="e_0_energy">     -0.00000000 </i>
  </energy>
  <time name="totalsc">    3.71    3.72</time>
 </calculation>
 <calculation>
  <scstep>
   <time name="dav">    0.36    0.36</time>
   <time name="total">    0.44    0.44</time>
   <energy>
    <i name="alphaZ">    156.48744246 </i>
    <i name="ewald">  -2617.55597923 </i>
    <i name="hartreedc">  -2089.76408263 </i>
    <i name="XCdc">    166.58402945 </i>
    <i name="pawpsdc">   3855.17457176 </i>
    <i name="pawaedc">  -3816.66822482 </i>
    <i name="eentropy">     -0.00000000 </i>
    <i name="bandstr">   -530.52136259 </i>
    <i name="atom">   4830.08457801 </i>
    <i name="e_fr_energy">    -46.17902760 </i>
    <i name="e_wo_entrp">    -46.17902760 </i>
    <i name="e_0_energy">    -46.17902760 </i>
   </energy>
  </scstep>
  <scstep>
   <time name="diag">    0.07    0.08</time>
   <time name="diis">    0.23    0.23</time>
   <time name="orth">    0.01    0.01</time>
   <time name="total">    0.38    0.38</time>
   <energy>
    <i name="e_fr_energy">    -45.40145633 </i>
    <i name="e_wo_entrp">    -45.40145633 </i>
    <i name="e_0_energy">    -45.40145633 </i>
   </energy>
  </scstep>
  <scstep>
   <time name="diag">    0.08    0.08</time>
   <time name="diis">    0.24    0.24</time>
   <time name="orth">    0.01    0.01</time>
   <time name="total">    0.39    0.40</time>
   <energy>
    <i name="e_fr_energy">    -45.25150013 </i>
    <i name="e_wo_entrp">    -45.25150013 </i>
    <i name="e_0_energy">    -45.25150013 </i>
   </energy>
  </scstep>
  <scstep>
   <time name="diag">    0.07    0.08</time>
   <time name="diis">    0.22    0.22</time>
   <time name="orth">    0.01    0.01</time>
   <time name="total">    0.38    0.38</time>
   <energy>
    <i name="e_fr_energy">    -45.22724888 </i>
    <i name="e_wo_entrp">    -45.22724888 </i>
    <i name="e_0_energy">    -45.22724888 </i>
   </energy>
  </scstep>
  <scstep>
   <time name="diag">    0.07    0.08</time>
   <time name="diis">    0.25    0.25</time>
   <time name="orth">    0.01    0.01</time>
   <time name="total">    0.40    0.40</time>
   <energy>
    <i name="e_fr_energy">    -45.22957349 </i>
    <i name="e_wo_entrp">    -45.22957349 </i>
    <i name="e_0_energy">    -45.22957349 </i>
   </energy>
  </scstep>
  <scstep>
   <time name="diag">    0.07    0.08</time>
   <time name="diis">    0.25    0.25</time>
   <time name="orth">    0.01    0.01</time>
   <time name="total">    0.41    0.41</time>
   <energy>
    <i name="e_fr_energy">    -45.22913846 </i>
    <i name="e_wo_entrp">    -45.22913846 </i>
    <i name="e_0_energy">    -45.22913846 </i>
   </energy>
  </scstep>
  <scstep>
   <time name="diag">    0.07    0.08</time>
   <time name="diis">    0.25    0.25</time>
   <time name="orth">    0.01    0.01</time>
   <time name="total">    0.40    0.40</time>
   <energy>
    <i name="e_fr_energy">    -45.22946961 </i>
    <i name="e_wo_entrp">    -45.22946961 </i>
    <i name="e_0_energy">    -45.22946961 </i>
   </energy>
  </scstep>
  <scstep>
   <time name="diag">    0.07    0.08</time>
   <time name="diis">    0.23    0.23</time>
   <time name="orth">    0.01    0.01</time>
   <time name="total">    0.39    0.39</time>
   <energy>
    <i name="e_fr_energy">    -45.22946611 </i>
    <i name="e_wo_entrp">    -45.22946611 </i>
    <i name="e_0_energy">    -45.22946611 </i>
   </energy>
  </scstep>
  <scstep>
   <time name="diag">    0.08    0.08</time>
   <time name="diis">    0.16    0.16</time>
   <time name="orth">    0.01    0.01</time>
   <time name="total">    0.28    0.28</time>
   <energy>
    <i name="alphaZ">    156.48744246 </i>
    <i name="ewald">  -2617.55597923 </i>
    <i name="hartreedc">  -2046.30295349 </i>
    <i name="XCdc">    165.48668373 </i>
    <i name="pawpsdc">   3854.64775339 </i>
    <i name="pawaedc">  -3816.12699677 </i>
    <i name="eentropy">     -0.00000000 </i>
    <i name="bandstr">   -571.95000191 </i>
    <i name="atom">   4830.08457801 </i>
    <i name="e_fr_energy">    -45.22947381 </i>
    <i name="e_wo_entrp">    -45.22947381 </i>
    <i name="e_0_energy">    -45.22947381 </i>
   </energy>
  </scstep>
  <structure>
   <crystal>
    <varray name="basis" >
     <v>       3.18670335      -0.00000000       0.00000000 </v>
     <v>      -1.59335168       2.75976536      -0.00000000 </v>
     <v>       0.00000000       0.00000000      13.89503339 </v>
    </varray>
    <i name="volume">    122.20061482 </i>
    <varray name="rec_basis" >
     <v>       0.31380392       0.18117482      -0.00000000 </v>
     <v>       0.00000000       0.36234965      -0.00000000 </v>
     <v>       0.00000000       0.00000000       0.07196816 </v>
    </varray>
   </crystal>
   <varray name="positions" >
    <v>       0.66666700       0.33333300       0.25000000 </v>
    <v>       0.33333300       0.66666700       0.75000000 </v>
    <v>       0.33333300       0.66666700       0.13800852 </v>
    <v>       0.66666700       0.33333300       0.63800852 </v>
    <v>       0.33333300       0.66666700       0.36199148 </v>
    <v>       0.66666700       0.33333300       0.86199148 </v>
   </varray>
  </structure>
  <varray name="forces" >
   <v>      -0.00000000       0.00000000      -0.00000000 </v>
   <v>       0.00000000      -0.00000000      -0.00000000 </v>
   <v>       0.00000000       0.00000000      -0.13944192 </v>
   <v>       0.00000000      -0.00000000      -0.13944192 </v>
   <v>       0.00000000       0.00000000       0.13944192 </v>
   <v>      -0.00000000      -0.00000000       0.13944192 </v>
  </varray>
  <varray name="stress" >
   <v>      -3.25560681      -0.00000000      -0.00000000 </v>
   <v>      -0.00000000      -3.25560516      -0.00000000 </v>
   <v>      -0.00000000       0.00000000      10.88796552 </v>
  </varray>
  <energy>
   <i name="e_fr_energy">    -45.22947381 </i>
   <i name="e_wo_entrp">    -45.22947381 </i>
   <i name="e_0_energy">     -0.00000000 </i>
  </energy>
  <time name="totalsc">    4.16    4.18</time>
 </calculation>
 <calculation>
  <scstep>
   <time name="dav">    0.36    0.37</time>
   <time name="total">    0.44    0.44</time>
   <energy>
    <i name="alphaZ">    156.92522113 </i>
    <i name="ewald">  -2638.56906845 </i>
    <i name="hartreedc">  -2031.37669937 </i>
    <i name="XCdc">    165.55626092 </i>
    <i name="pawpsdc">   3854.83363956 </i>
    <i name="pawaedc">  -3816.31371907 </i>
    <i name="eentropy">     -0.00000000 </i>
    <i name="bandstr">   -566.37755250 </i>
    <i name="atom">   4830.08457801 </i>
    <i name="e_fr_energy">    -45.23733975 </i>
    <i name="e_wo_entrp">    -45.23733975 </i>
    <i name="e_0_energy">    -45.23733975 </i>
   </energy>
  </scstep>
  <scstep>
   <time name="diag">    0.07    0.08</time>
   <time name="diis">    0.22    0.22</time>
   <time name="orth">    0.01    0.01</time>
   <time name="total">    0.37    0.37</time>
   <energy>
    <i name="e_fr_energy">    -45.23213069 </i>
    <i name="e_wo_entrp">    -45.23213069 </i>
    <i name="e_0_energy">    -45.23213069 </i>
   </energy>
  </scstep>
  <scstep>
   <time name="diag">    0.07    0.08</time>
   <time name="diis">    0.24    0.24</time>
   <time name="orth">    0.01    0.01</time>
   <time name="total">    0.39    0.39</time>
   <energy>
    <i name="e_fr_energy">    -45.23102625 </i>
    <i name="e_wo_entrp">    -45.23102625 </i>
    <i name="e_0_energy">    -45.23102625 </i>
   </energy>
  </scstep>
  <scstep>
   <time name="diag">    0.07    0.08</time>
   <time name="diis">    0.22    0.22</time>
   <time name="orth">    0.01    0.01</time>
   <time name="total">    0.37    0.37</time>
   <energy>
    <i name="e_fr_energy">    -45.23088391 </i>
    <i name="e_wo_entrp">    -45.23088391 </i>
    <i name="e_0_energy">    -45.23088391 </i>
   </energy>
  </scstep>
  <scstep>
   <time name="diag">    0.07    0.08</time>
   <time name="diis">    0.23    0.23</time>
   <time name="orth">    0.01    0.01</time>
   <time name="total">    0.38    0.38</time>
   <energy>
    <i name="e_fr_energy">    -45.23091386 </i>
    <i name="e_wo_entrp">    -45.23091386 </i>
    <i name="e_0_energy">    -45.23091386 </i>
   </energy>
  </scstep>
  <scstep>
   <time name="diag">    0.07    0.08</time>
   <time name="diis">    0.14    0.14</time>
   <time name="orth">    0.01    0.01</time>
   <time name="total">    0.25    0.25</time>
   <energy>
    <i name="alphaZ">    156.92522113 </i>
    <i name="ewald">  -2638.56906845 </i>
    <i name="hartreedc">  -2027.64024506 </i>
    <i name="XCdc">    165.45166463 </i>
    <i name="pawpsdc">   3852.45526480 </i>
    <i name="pawaedc">  -3813.93116489 </i>
    <i name="eentropy">     -0.00000000 </i>
    <i name="bandstr">   -570.00717377 </i>
    <i name="atom">   4830.08457801 </i>
    <i name="e_fr_energy">    -45.23092359 </i>
    <i name="e_wo_entrp">    -45.23092359 </i>
    <i name="e_0_energy">    -45.23092359 </i>
   </energy>
  </scstep>
  <structure>
   <crystal>
    <varray name="basis" >
     <v>       3.18646124      -0.00000000      -0.00000000 </v>
     <v>      -1.59323062       2.75955568      -0.00000000 </v>
     <v>       0.00000000       0.00000000      13.85837576 </v>
    </varray>
    <i name="volume">    121.85970835 </i>
    <varray name="rec_basis" >
     <v>       0.31382776       0.18118859      -0.00000000 </v>
     <v>       0.00000000       0.36237718      -0.00000000 </v>
     <v>       0.00000000       0.00000000       0.07215853 </v>
    </varray>
   </crystal>
   <varray name="positions" >
    <v>       0.66666700       0.33333300       0.25000000 </v>
    <v>       0.33333300       0.66666700       0.75000000 </v>
    <v>       0.33333300       0.66666700       0.13748291 </v>
    <v>       0.66666700       0.33333300       0.63748291 </v>
    <v>       0.33333300       0.66666700       0.36251709 </v>
    <v>       0.66666700       0.33333300       0.86251709 </v>
   </varray>
  </structure>
  <varray name="forces" >
   <v>      -0.00000000      -0.00000000      -0.00000000 </v>
   <v>      -0.00000000      -0.00000000      -0.00000000 </v>
   <v>       0.00000000       0.00000000      -0.07772583 </v>
   <v>       0.00000000       0.00000000      -0.07772583 </v>
   <v>       0.00000000       0.00000000       0.07772583 </v>
   <v>       0.00000000       0.00000000       0.07772583 </v>
  </varray>
  <varray name="stress" >
   <v>      -4.92010962      -0.00000000       0.00000000 </v>
   <v>       0.00000000      -4.92010713       0.00000000 </v>
   <v>       0.00000000       0.00000000       5.36698399 </v>
  </varray>
  <energy>
   <i name="e_fr_energy">    -45.23092359 </i>
   <i name="e_wo_entrp">    -45.23092359 </i>
   <i name="e_0_energy">     -0.00000000 </i>
  </energy>
  <time name="totalsc">    2.91    2.92</time>
 </calculation>
 <calculation>
  <scstep>
   <time name="dav">    0.37    0.37</time>
   <time name="total">    0.44    0.45</time>
   <energy>
    <i name="alphaZ">    157.74874457 </i>
    <i name="ewald">  -2677.44654080 </i>
    <i name="hartreedc">  -2000.02864823 </i>
    <i name="XCdc">    165.57953274 </i>
    <i name="pawpsdc">   3852.47030074 </i>
    <i name="pawaedc">  -3813.94399592 </i>
    <i name="eentropy">     -0.00000000 </i>
    <i name="bandstr">   -559.71834778 </i>
    <i name="atom">   4830.08457801 </i>
    <i name="e_fr_energy">    -45.25437668 </i>
    <i name="e_wo_entrp">    -45.25437668 </i>
    <i name="e_0_energy">    -45.25437668 </i>
   </energy>
  </scstep>
  <scstep>
   <time name="diag">    0.07    0.08</time>
   <time name="diis">    0.22    0.22</time>
   <time name="orth">    0.01    0.01</time>
   <time name="total">    0.38    0.38</time>
   <energy>
    <i name="e_fr_energy">    -45.23590611 </i>
    <i name="e_wo_entrp">    -45.23590611 </i>
    <i name="e_0_energy">    -45.23590611 </i>
   </energy>
  </scstep>
  <scstep>
   <time name="diag">    0.07    0.08</time>
   <time name="diis">    0.24    0.24</time>
   <time name="orth">    0.01    0.01</time>
   <time name="total">    0.39    0.40</time>
   <energy>
    <i name="e_fr_energy">    -45.23194315 </i>
    <i name="e_wo_entrp">    -45.23194315 </i>
    <i name="e_0_energy">    -45.23194315 </i>
   </energy>
  </scstep>
  <scstep>
   <time name="diag">    0.07    0.08</time>
   <time name="diis">    0.22    0.22</time>
   <time name="orth">    0.01    0.01</time>
   <time name="total">    0.37    0.38</time>
   <energy>
    <i name="e_fr_energy">    -45.23142050 </i>
    <i name="e_wo_entrp">    -45.23142050 </i>
    <i name="e_0_energy">    -45.23142050 </i>
   </energy>
  </scstep>
  <scstep>
   <time name="diag">    0.07    0.08</time>
   <time name="diis">    0.24    0.24</time>
   <time name="orth">    0.01    0.01</time>
   <time name="total">    0.39    0.40</time>
   <energy>
    <i name="e_fr_energy">    -45.23150669 </i>
    <i name="e_wo_entrp">    -45.23150669 </i>
    <i name="e_0_energy">    -45.23150669 </i>
   </energy>
  </scstep>
  <scstep>
   <time name="diag">    0.07    0.08</time>
   <time name="diis">    0.20    0.20</time>
   <time name="orth">    0.01    0.01</time>
   <time name="total">    0.35    0.35</time>
   <energy>
    <i name="e_fr_energy">    -45.23152770 </i>
    <i name="e_wo_entrp">    -45.23152770 </i>
    <i name="e_0_energy">    -45.23152770 </i>
   </energy>
  </scstep>
  <scstep>
   <time name="diag">    0.07    0.08</time>
   <time name="diis">    0.13    0.13</time>
   <time name="orth">    0.01    0.01</time>
   <time name="total">    0.24    0.24</time>
   <energy>
    <i name="alphaZ">    157.74874457 </i>
    <i name="ewald">  -2677.44654080 </i>
    <i name="hartreedc">  -1992.99725806 </i>
    <i name="XCdc">    165.38281603 </i>
    <i name="pawpsdc">   3848.20015133 </i>
    <i name="pawaedc">  -3809.66180987 </i>
    <i name="eentropy">     -0.00000000 </i>
    <i name="bandstr">   -566.54221226 </i>
    <i name="atom">   4830.08457801 </i>
    <i name="e_fr_energy">    -45.23153104 </i>
    <i name="e_wo_entrp">    -45.23153104 </i>
    <i name="e_0_energy">    -45.23153104 </i>
   </energy>
  </scstep>
  <structure>
   <crystal>
    <varray name="basis" >
     <v>       3.18600924      -0.00000000      -0.00000000 </v>
     <v>      -1.59300462       2.75916424      -0.00000000 </v>
     <v>       0.00000000       0.00000000      13.78994035 </v>
    </varray>
    <i name="volume">    121.22354274 </i>
    <varray name="rec_basis" >
     <v>       0.31387228       0.18121429      -0.00000000 </v>
     <v>       0.00000000       0.36242859      -0.00000000 </v>
     <v>       0.00000000       0.00000000       0.07251663 </v>
    </varray>
   </crystal>
   <varray name="positions" >
    <v>       0.66666700       0.33333300       0.25000000 </v>
    <v>       0.33333300       0.66666700       0.75000000 </v>
    <v>       0.33333300       0.66666700       0.13649905 </v>
    <v>       0.66666700       0.33333300       0.63649905 </v>
    <v>       0.33333300       0.66666700       0.36350095 </v>
    <v>       0.66666700       0.33333300       0.86350095 </v>
   </varray>
  </structure>
  <varray name="forces" >
   <v>       0.00000000       0.00000000       0.00000000 </v>
   <v>      -0.00000000      -0.00000000       0.00000000 </v>
   <v>       0.00000000       0.00000000       0.02917081 </v>
   <v>      -0.00000000      -0.00000000       0.02917081 </v>
   <v>       0.00000000       0.00000000      -0.02917081 </v>
   <v>      -0.00000000      -0.00000000      -0.02917081 </v>
  </varray>
  <varray name="stress" >
[...]
       <r>    8.1145    0.0000 </r>
       <r>    8.1750    0.0000 </r>
      </set>
      <set comment="kpoint 13">
       <r>  -55.4447    1.0000 </r>
       <r>  -55.4446    1.0000 </r>
       <r>  -29.7406    1.0000 </r>
       <r>  -29.7405    1.0000 </r>
       <r>  -29.5495    1.0000 </r>
       <r>  -29.5494    1.0000 </r>
       <r>  -29.4807    1.0000 </r>
       <r>  -29.4807    1.0000 </r>
       <r>   -7.0451    1.0000 </r>
       <r>   -7.0339    1.0000 </r>
       <r>   -6.7281    1.0000 </r>
       <r>   -6.7159    1.0000 </r>
       <r>   -0.1479    1.0000 </r>
       <r>   -0.1207    1.0000 </r>
       <r>    0.8268    1.0000 </r>
       <r>    0.8550    1.0000 </r>
       <r>    1.4205    1.0000 </r>
       <r>    1.4852    1.0000 </r>
       <r>    2.3699    1.0000 </r>
       <r>    2.3746    1.0000 </r>
       <r>    3.5744    1.0000 </r>
       <r>    3.6282    1.0000 </r>
       <r>    4.2968    1.0000 </r>
       <r>    4.3074    1.0000 </r>
       <r>    4.5387    1.0000 </r>
       <r>    4.5710    1.0000 </r>
       <r>    7.6144    0.0000 </r>
       <r>    7.6216    0.0000 </r>
       <r>    7.9102    0.0000 </r>
       <r>    7.9875    0.0000 </r>
       <r>    9.0406    0.0000 </r>
       <r>    9.1787    0.0000 </r>
      </set>
      <set comment="kpoint 14">
       <r>  -55.4487    1.0000 </r>
       <r>  -55.4487    1.0000 </r>
       <r>  -29.6686    1.0000 </r>
       <r>  -29.6685    1.0000 </r>
       <r>  -29.5576    1.0000 </r>
       <r>  -29.5576    1.0000 </r>
       <r>  -29.5056    1.0000 </r>
       <r>  -29.5056    1.0000 </r>
       <r>   -7.2908    1.0000 </r>
       <r>   -7.2768    1.0000 </r>
       <r>   -6.8143    1.0000 </r>
       <r>   -6.7972    1.0000 </r>
       <r>    0.3504    1.0000 </r>
       <r>    0.3883    1.0000 </r>
       <r>    1.1953    1.0000 </r>
       <r>    1.2094    1.0000 </r>
       <r>    1.6541    1.0000 </r>
       <r>    1.6877    1.0000 </r>
       <r>    2.0838    1.0000 </r>
       <r>    2.1547    1.0000 </r>
       <r>    3.1711    1.0000 </r>
       <r>    3.1735    1.0000 </r>
       <r>    4.1525    1.0000 </r>
       <r>    4.1726    1.0000 </r>
       <r>    4.6316    1.0000 </r>
       <r>    4.6325    1.0000 </r>
       <r>    7.3205    0.0000 </r>
       <r>    7.4576    0.0000 </r>
       <r>    7.9389    0.0000 </r>
       <r>    7.9600    0.0000 </r>
       <r>    8.2822    0.0000 </r>
       <r>    8.3723    0.0000 </r>
      </set>
      <set comment="kpoint 15">
       <r>  -55.4383    1.0000 </r>
       <r>  -55.4382    1.0000 </r>
       <r>  -29.7328    1.0000 </r>
       <r>  -29.7326    1.0000 </r>
       <r>  -29.5692    1.0000 </r>
       <r>  -29.5690    1.0000 </r>
       <r>  -29.5364    1.0000 </r>
       <r>  -29.5364    1.0000 </r>
       <r>   -6.6537    1.0000 </r>
       <r>   -6.6489    1.0000 </r>
       <r>   -6.5396    1.0000 </r>
       <r>   -6.5350    1.0000 </r>
       <r>    0.1798    1.0000 </r>
       <r>    0.1975    1.0000 </r>
       <r>    0.2380    1.0000 </r>
       <r>    0.2424    1.0000 </r>
       <r>    1.4652    1.0000 </r>
       <r>    1.5113    1.0000 </r>
       <r>    2.3003    1.0000 </r>
       <r>    2.3440    1.0000 </r>
       <r>    2.6820    1.0000 </r>
       <r>    2.7045    1.0000 </r>
       <r>    3.4442    1.0000 </r>
       <r>    3.4852    1.0000 </r>
       <r>    5.1412    1.0000 </r>
       <r>    5.1590    1.0000 </r>
       <r>    7.4341    0.0000 </r>
       <r>    7.4457    0.0000 </r>
       <r>    8.5417    0.0000 </r>
       <r>    8.5464    0.0000 </r>
       <r>    8.6871    0.0000 </r>
       <r>    8.7767    0.0000 </r>
      </set>
     </set>
    </set>
   </array>
  </eigenvalues>
  <separator name="orbital magnetization" >
   <v name="MAGDIPOLOUT">      0.00000000      0.00000000      0.00000000</v>
  </separator>
  <dos>
   <i name="efermi">      5.98622790 </i>
   <total>
    <array>
     <dimension dim="1">gridpoints</dimension>
     <dimension dim="2">spin</dimension>
     <field>energy</field>
     <field>total</field>
     <field>integrated</field>
     <set>
      <set comment="spin 1">
       <r>   -58.7203     0.0000     0.0000 </r>
       <r>   -58.4826     0.0000     0.0000 </r>
       <r>   -58.2450     0.0000     0.0000 </r>
       <r>   -58.0073     0.0000     0.0000 </r>
       <r>   -57.7696     0.0000     0.0000 </r>
       <r>   -57.5319     0.0000     0.0000 </r>
       <r>   -57.2943     0.0000     0.0000 </r>
       <r>   -57.0566     0.0000     0.0000 </r>
       <r>   -56.8189     0.0000     0.0000 </r>
       <r>   -56.5812     0.0000     0.0000 </r>
       <r>   -56.3436     0.0000     0.0000 </r>
       <r>   -56.1059     0.0000     0.0000 </r>
       <r>   -55.8682     0.0000     0.0000 </r>
       <r>   -55.6306     0.0000     0.0000 </r>
       <r>   -55.3929    15.8233     3.7608 </r>
       <r>   -55.1552     1.0065     4.0000 </r>
       <r>   -54.9175     0.0000     4.0000 </r>
       <r>   -54.6799     0.0000     4.0000 </r>
       <r>   -54.4422     0.0000     4.0000 </r>
       <r>   -54.2045     0.0000     4.0000 </r>
       <r>   -53.9668     0.0000     4.0000 </r>
       <r>   -53.7292     0.0000     4.0000 </r>
       <r>   -53.4915     0.0000     4.0000 </r>
       <r>   -53.2538     0.0000     4.0000 </r>
       <r>   -53.0161     0.0000     4.0000 </r>
       <r>   -52.7785     0.0000     4.0000 </r>
       <r>   -52.5408     0.0000     4.0000 </r>
       <r>   -52.3031     0.0000     4.0000 </r>
       <r>   -52.0655     0.0000     4.0000 </r>
       <r>   -51.8278     0.0000     4.0000 </r>
       <r>   -51.5901     0.0000     4.0000 </r>
       <r>   -51.3524     0.0000     4.0000 </r>
       <r>   -51.1148     0.0000     4.0000 </r>
       <r>   -50.8771     0.0000     4.0000 </r>
       <r>   -50.6394     0.0000     4.0000 </r>
       <r>   -50.4017     0.0000     4.0000 </r>
       <r>   -50.1641     0.0000     4.0000 </r>
       <r>   -49.9264     0.0000     4.0000 </r>
       <r>   -49.6887     0.0000     4.0000 </r>
       <r>   -49.4510     0.0000     4.0000 </r>
       <r>   -49.2134     0.0000     4.0000 </r>
       <r>   -48.9757     0.0000     4.0000 </r>
       <r>   -48.7380     0.0000     4.0000 </r>
       <r>   -48.5004     0.0000     4.0000 </r>
       <r>   -48.2627     0.0000     4.0000 </r>
       <r>   -48.0250     0.0000     4.0000 </r>
       <r>   -47.7873     0.0000     4.0000 </r>
       <r>   -47.5497     0.0000     4.0000 </r>
       <r>   -47.3120     0.0000     4.0000 </r>
       <r>   -47.0743     0.0000     4.0000 </r>
       <r>   -46.8366     0.0000     4.0000 </r>
       <r>   -46.5990     0.0000     4.0000 </r>
       <r>   -46.3613     0.0000     4.0000 </r>
       <r>   -46.1236     0.0000     4.0000 </r>
       <r>   -45.8860     0.0000     4.0000 </r>
       <r>   -45.6483     0.0000     4.0000 </r>
       <r>   -45.4106     0.0000     4.0000 </r>
       <r>   -45.1729     0.0000     4.0000 </r>
       <r>   -44.9353     0.0000     4.0000 </r>
       <r>   -44.6976     0.0000     4.0000 </r>
       <r>   -44.4599     0.0000     4.0000 </r>
       <r>   -44.2222     0.0000     4.0000 </r>
       <r>   -43.9846     0.0000     4.0000 </r>
       <r>   -43.7469     0.0000     4.0000 </r>
       <r>   -43.5092     0.0000     4.0000 </r>
       <r>   -43.2715     0.0000     4.0000 </r>
       <r>   -43.0339     0.0000     4.0000 </r>
       <r>   -42.7962     0.0000     4.0000 </r>
       <r>   -42.5585     0.0000     4.0000 </r>
       <r>   -42.3209     0.0000     4.0000 </r>
       <r>   -42.0832     0.0000     4.0000 </r>
       <r>   -41.8455     0.0000     4.0000 </r>
       <r>   -41.6078     0.0000     4.0000 </r>
       <r>   -41.3702     0.0000     4.0000 </r>
       <r>   -41.1325     0.0000     4.0000 </r>
       <r>   -40.8948     0.0000     4.0000 </r>
       <r>   -40.6571     0.0000     4.0000 </r>
       <r>   -40.4195     0.0000     4.0000 </r>
       <r>   -40.1818     0.0000     4.0000 </r>
       <r>   -39.9441     0.0000     4.0000 </r>
       <r>   -39.7064     0.0000     4.0000 </r>
       <r>   -39.4688     0.0000     4.0000 </r>
       <r>   -39.2311     0.0000     4.0000 </r>
       <r>   -38.9934     0.0000     4.0000 </r>
       <r>   -38.7558     0.0000     4.0000 </r>
       <r>   -38.5181     0.0000     4.0000 </r>
       <r>   -38.2804     0.0000     4.0000 </r>
       <r>   -38.0427     0.0000     4.0000 </r>
       <r>   -37.8051     0.0000     4.0000 </r>
       <r>   -37.5674     0.0000     4.0000 </r>
       <r>   -37.3297     0.0000     4.0000 </r>
       <r>   -37.0920     0.0000     4.0000 </r>
       <r>   -36.8544     0.0000     4.0000 </r>
       <r>   -36.6167     0.0000     4.0000 </r>
       <r>   -36.3790     0.0000     4.0000 </r>
       <r>   -36.1413     0.0000     4.0000 </r>
       <r>   -35.9037     0.0000     4.0000 </r>
       <r>   -35.6660     0.0000     4.0000 </r>
       <r>   -35.4283     0.0000     4.0000 </r>
       <r>   -35.1907     0.0000     4.0000 </r>
       <r>   -34.9530     0.0000     4.0000 </r>
       <r>   -34.7153     0.0000     4.0000 </r>
       <r>   -34.4776     0.0000     4.0000 </r>
       <r>   -34.2400     0.0000     4.0000 </r>
       <r>   -34.0023     0.0000     4.0000 </r>
       <r>   -33.7646     0.0000     4.0000 </r>
       <r>   -33.5269     0.0000     4.0000 </r>
       <r>   -33.2893     0.0000     4.0000 </r>
       <r>   -33.0516     0.0000     4.0000 </r>
       <r>   -32.8139     0.0000     4.0000 </r>
       <r>   -32.5763     0.0000     4.0000 </r>
       <r>   -32.3386     0.0000     4.0000 </r>
       <r>   -32.1009     0.0000     4.0000 </r>
       <r>   -31.8632     0.0000     4.0000 </r>
       <r>   -31.6256     0.0000     4.0000 </r>
       <r>   -31.3879     0.0000     4.0000 </r>
       <r>   -31.1502     0.0000     4.0000 </r>
       <r>   -30.9125     0.0000     4.0000 </r>
       <r>   -30.6749     0.0000     4.0000 </r>
       <r>   -30.4372     0.0000     4.0000 </r>
       <r>   -30.1995     0.0000     4.0000 </r>
       <r>   -29.9618     0.0000     4.0000 </r>
       <r>   -29.7242     5.3773     5.2780 </r>
       <r>   -29.4865    35.5467    13.7265 </r>
       <r>   -29.2488     9.5655    16.0000 </r>
       <r>   -29.0112     0.0000    16.0000 </r>
       <r>   -28.7735     0.0000    16.0000 </r>
       <r>   -28.5358     0.0000    16.0000 </r>
       <r>   -28.2981     0.0000    16.0000 </r>
       <r>   -28.0605     0.0000    16.0000 </r>
       <r>   -27.8228     0.0000    16.0000 </r>
       <r>   -27.5851     0.0000    16.0000 </r>
       <r>   -27.3474     0.0000    16.0000 </r>
       <r>   -27.1098     0.0000    16.0000 </r>
       <r>   -26.8721     0.0000    16.0000 </r>
       <r>   -26.6344     0.0000    16.0000 </r>
       <r>   -26.3967     0.0000    16.0000 </r>
       <r>   -26.1591     0.0000    16.0000 </r>
       <r>   -25.9214     0.0000    16.0000 </r>
       <r>   -25.6837     0.0000    16.0000 </r>
       <r>   -25.4461     0.0000    16.0000 </r>
       <r>   -25.2084     0.0000    16.0000 </r>
       <r>   -24.9707     0.0000    16.0000 </r>
       <r>   -24.7330     0.0000    16.0000 </r>
       <r>   -24.4954     0.0000    16.0000 </r>
       <r>   -24.2577     0.0000    16.0000 </r>
       <r>   -24.0200     0.0000    16.0000 </r>
       <r>   -23.7823     0.0000    16.0000 </r>
       <r>   -23.5447     0.0000    16.0000 </r>
       <r>   -23.3070     0.0000    16.0000 </r>
       <r>   -23.0693     0.0000    16.0000 </r>
       <r>   -22.8316     0.0000    16.0000 </r>
       <r>   -22.5940     0.0000    16.0000 </r>
       <r>   -22.3563     0.0000    16.0000 </r>
       <r>   -22.1186     0.0000    16.0000 </r>
       <r>   -21.8810     0.0000    16.0000 </r>
       <r>   -21.6433     0.0000    16.0000 </r>
       <r>   -21.4056     0.0000    16.0000 </r>
       <r>   -21.1679     0.0000    16.0000 </r>
       <r>   -20.9303     0.0000    16.0000 </r>
       <r>   -20.6926     0.0000    16.0000 </r>
       <r>   -20.4549     0.0000    16.0000 </r>
       <r>   -20.2172     0.0000    16.0000 </r>
       <r>   -19.9796     0.0000    16.0000 </r>
       <r>   -19.7419     0.0000    16.0000 </r>
       <r>   -19.5042     0.0000    16.0000 </r>
       <r>   -19.2666     0.0000    16.0000 </r>
       <r>   -19.0289     0.0000    16.0000 </r>
       <r>   -18.7912     0.0000    16.0000 </r>
       <r>   -18.5535     0.0000    16.0000 </r>
       <r>   -18.3159     0.0000    16.0000 </r>
       <r>   -18.0782     0.0000    16.0000 </r>
       <r>   -17.8405     0.0000    16.0000 </r>
       <r>   -17.6028     0.0000    16.0000 </r>
       <r>   -17.3652     0.0000    16.0000 </r>
       <r>   -17.1275     0.0000    16.0000 </r>
       <r>   -16.8898     0.0000    16.0000 </r>
       <r>   -16.6521     0.0000    16.0000 </r>
       <r>   -16.4145     0.0000    16.0000 </r>
       <r>   -16.1768     0.0000    16.0000 </r>
       <r>   -15.9391     0.0000    16.0000 </r>
       <r>   -15.7015     0.0000    16.0000 </r>
       <r>   -15.4638     0.0000    16.0000 </r>
       <r>   -15.2261     0.0000    16.0000 </r>
       <r>   -14.9884     0.0000    16.0000 </r>
       <r>   -14.7508     0.0000    16.0000 </r>
       <r>   -14.5131     0.0000    16.0000 </r>
       <r>   -14.2754     0.0000    16.0000 </r>
       <r>   -14.0377     0.0000    16.0000 </r>
       <r>   -13.8001     0.0000    16.0000 </r>
       <r>   -13.5624     0.0000    16.0000 </r>
       <r>   -13.3247     0.0000    16.0000 </r>
       <r>   -13.0870     0.0000    16.0000 </r>
       <r>   -12.8494     0.0000    16.0000 </r>
       <r>   -12.6117     0.0000    16.0000 </r>
       <r>   -12.3740     0.0000    16.0000 </r>
       <r>   -12.1364     0.0000    16.0000 </r>
       <r>   -11.8987     0.0000    16.0000 </r>
       <r>   -11.6610     0.0000    16.0000 </r>
       <r>   -11.4233     0.0000    16.0000 </r>
       <r>   -11.1857     0.0000    16.0000 </r>
       <r>   -10.9480     0.0000    16.0000 </r>
       <r>   -10.7103     0.0000    16.0000 </r>
       <r>   -10.4726     0.0000    16.0000 </r>
       <r>   -10.2350     0.0000    16.0000 </r>
       <r>    -9.9973     0.0000    16.0000 </r>
       <r>    -9.7596     0.0000    16.0000 </r>
       <r>    -9.5219     0.0000    16.0000 </r>
       <r>    -9.2843     0.0000    16.0000 </r>
       <r>    -9.0466     0.0000    16.0000 </r>
       <r>    -8.8089     0.0007    16.0002 </r>
       <r>    -8.5713     0.6706    16.1595 </r>
       <r>    -8.3336     0.0020    16.1600 </r>
       <r>    -8.0959     3.2159    16.9243 </r>
       <r>    -7.8582     0.8232    17.1200 </r>
       <r>    -7.6206     0.0000    17.1200 </r>
       <r>    -7.3829     0.3883    17.2123 </r>
       <r>    -7.1452     6.8332    18.8363 </r>
       <r>    -6.9075     5.5912    20.1652 </r>
       <r>    -6.6699     8.9293    22.2875 </r>
       <r>    -6.4322     7.1990    23.9985 </r>
       <r>    -6.1945     0.0065    24.0000 </r>
       <r>    -5.9569     0.0000    24.0000 </r>
       <r>    -5.7192     0.0000    24.0000 </r>
       <r>    -5.4815     0.0000    24.0000 </r>
       <r>    -5.2438     0.0000    24.0000 </r>
       <r>    -5.0062     0.0000    24.0000 </r>
       <r>    -4.7685     0.0000    24.0000 </r>
       <r>    -4.5308     0.0000    24.0000 </r>
       <r>    -4.2931     0.0000    24.0000 </r>
       <r>    -4.0555     0.0000    24.0000 </r>
       <r>    -3.8178     0.0000    24.0000 </r>
       <r>    -3.5801     0.0000    24.0000 </r>
       <r>    -3.3424     0.0000    24.0000 </r>
       <r>    -3.1048     0.0000    24.0000 </r>
       <r>    -2.8671     0.0000    24.0000 </r>
       <r>    -2.6294     0.0000    24.0000 </r>
       <r>    -2.3918     0.0000    24.0000 </r>
       <r>    -2.1541     0.0000    24.0000 </r>
       <r>    -1.9164     0.0000    24.0000 </r>
       <r>    -1.6787     0.0000    24.0000 </r>
       <r>    -1.4411     0.0000    24.0000 </r>
       <r>    -1.2034     0.0000    24.0000 </r>
       <r>    -0.9657     0.0000    24.0000 </r>
       <r>    -0.7280     0.0000    24.0000 </r>
       <r>    -0.4904     0.0002    24.0001 </r>
       <r>    -0.2527     0.3163    24.0752 </r>
       <r>    -0.0150     4.3297    25.1043 </r>
       <r>     0.2227     5.7255    26.4651 </r>
       <r>     0.4603     9.5384    28.7321 </r>
       <r>     0.6980     0.9604    28.9604 </r>
       <r>     0.9357     3.9142    29.8907 </r>
       <r>     1.1733     1.0424    30.1384 </r>
       <r>     1.4110     5.0248    31.3327 </r>
       <r>     1.6487     7.4263    33.0977 </r>
       <r>     1.8864     6.4043    34.6199 </r>
       <r>     2.1240     3.5183    35.4561 </r>
       <r>     2.3617     8.9435    37.5817 </r>
       <r>     2.5994     4.1836    38.5760 </r>
       <r>     2.8371     4.9732    39.7580 </r>
       <r>     3.0747     0.3693    39.8458 </r>
       <r>     3.3124     8.3783    41.8371 </r>
       <r>     3.5501     8.8267    43.9349 </r>
       <r>     3.7878     3.4271    44.7495 </r>
       <r>     4.0254     1.5645    45.1213 </r>
       <r>     4.2631     6.7816    46.7331 </r>
       <r>     4.5008     5.8358    48.1202 </r>
       <r>     4.7384     7.5676    49.9188 </r>
       <r>     4.9761     2.1389    50.4271 </r>
       <r>     5.2138     5.8540    51.8185 </r>
       <r>     5.4515     0.4093    51.9158 </r>
       <r>     5.6891     0.2062    51.9648 </r>
       <r>     5.9268     0.1482    52.0000 </r>
       <r>     6.1645     0.0000    52.0000 </r>
       <r>     6.4022     0.0000    52.0000 </r>
       <r>     6.6398     0.0000    52.0000 </r>
       <r>     6.8775     0.0000    52.0000 </r>
       <r>     7.1152     0.0145    52.0034 </r>
       <r>     7.3528     1.9365    52.4637 </r>
       <r>     7.5905     8.2780    54.4312 </r>
       <r>     7.8282     5.9209    55.8384 </r>
       <r>     8.0659    12.6011    58.8333 </r>
       <r>     8.3035     6.7198    60.4304 </r>
       <r>     8.5412     4.7123    61.5504 </r>
       <r>     8.7789     4.6861    62.6642 </r>
       <r>     9.0166     2.9884    63.3744 </r>
       <r>     9.2542     1.5129    63.7340 </r>
       <r>     9.4919     1.1191    64.0000 </r>
       <r>     9.7296     0.0000    64.0000 </r>
       <r>     9.9673     0.0000    64.0000 </r>
       <r>    10.2049     0.0000    64.0000 </r>
       <r>    10.4426     0.0000    64.0000 </r>
       <r>    10.6803     0.0000    64.0000 </r>
       <r>    10.9179     0.0000    64.0000 </r>
       <r>    11.1556     0.0000    64.0000 </r>
       <r>    11.3933     0.0000    64.0000 </r>
       <r>    11.6310     0.0000    64.0000 </r>
       <r>    11.8686     0.0000    64.0000 </r>
       <r>    12.1063     0.0000    64.0000 </r>
       <r>    12.3440     0.0000    64.0000 </r>
       <r>    12.5817     0.0000    64.0000 </r>
      </set>
     </set>
    </array>
   </total>
  </dos>
 </calculation>
 <structure name="finalpos" >
  <crystal>
   <varray name="basis" >
    <v>       3.17926782      -0.00000000      -0.00000000 </v>
    <v>      -1.58963391       2.75332600      -0.00000000 </v>
    <v>       0.00000000       0.00000000      13.74528273 </v>
   </varray>
   <i name="volume">    120.32016749 </i>
   <varray name="rec_basis" >
    <v>       0.31453783       0.18159855      -0.00000000 </v>
    <v>       0.00000000       0.36319709      -0.00000000 </v>
    <v>       0.00000000       0.00000000       0.07275223 </v>
   </varray>
  </crystal>
  <varray name="positions" >
   <v>       0.66666700       0.33333300       0.25000000 </v>
   <v>       0.33333300       0.66666700       0.75000000 </v>
   <v>       0.33333300       0.66666700       0.13608426 </v>
   <v>       0.66666700       0.33333300       0.63608426 </v>
   <v>       0.33333300       0.66666700       0.36391574 </v>
   <v>       0.66666700       0.33333300       0.86391574 </v>
  </varray>
 </structure>
</modeling>
