2H-MoS2                                 
           1
     3.190316    0.000000    0.000000
    -1.595158    2.762894    0.000000
     0.000000    0.000000   14.879004
   Mo   S 
   2   4
Direct configuration=     1
   0.66666700  0.33333300  0.25000000
   0.33333300  0.66666700  0.75000000
   0.33333300  0.66666700  0.14482600
   0.66666700  0.33333300  0.64482600
   0.33333300  0.66666700  0.35517400
   0.66666700  0.33333300  0.85517400
2H-MoS2                                 
           1
     3.158510   -0.000000    0.000000
    -1.579255    2.735349   -0.000000
    -0.000000    0.000000   14.732505
   Mo   S 
   2   4
Direct configuration=     2
   0.66666700  0.33333300  0.25000000
   0.33333300  0.66666700  0.75000000
   0.33333300  0.66666700  0.14497116
   0.66666700  0.33333300  0.64497116
   0.33333300  0.66666700  0.35502884
   0.66666700  0.33333300  0.85502884
2H-MoS2                                 
           1
     3.179293   -0.000000    0.000000
    -1.589647    2.753348   -0.000000
    -0.000000    0.000000   14.828234
   Mo   S 
   2   4
Direct configuration=     3
   0.66666700  0.33333300  0.25000000
   0.33333300  0.66666700  0.75000000
   0.33333300  0.66666700  0.14487536
   0.66666700  0.33333300  0.64487536
   0.33333300  0.66666700  0.35512464
   0.66666700  0.33333300  0.85512464
2H-MoS2                                 
           1
     3.174390   -0.000000   -0.000000
    -1.587195    2.749101    0.000000
     0.000000    0.000000   14.818244
   Mo   S 
   2   4
Direct configuration=     4
   0.66666700  0.33333300  0.25000000
   0.33333300  0.66666700  0.75000000
   0.33333300  0.66666700  0.14448319
   0.66666700  0.33333300  0.64448319
   0.33333300  0.66666700  0.35551681
   0.66666700  0.33333300  0.85551681
2H-MoS2                                 
           1
     3.169727   -0.000000   -0.000000
    -1.584864    2.745063    0.000000
     0.000000    0.000000   14.808746
   Mo   S 
   2   4
Direct configuration=     5
   0.66666700  0.33333300  0.25000000
   0.33333300  0.66666700  0.75000000
   0.33333300  0.66666700  0.14411007
   0.66666700  0.33333300  0.64411007
   0.33333300  0.66666700  0.35588993
   0.66666700  0.33333300  0.85588993
2H-MoS2                                 
           1
     3.170499   -0.000000    0.000000
    -1.585249    2.745732    0.000000
     0.000000    0.000000   14.767213
   Mo   S 
   2   4
Direct configuration=     6
   0.66666700  0.33333300  0.25000000
   0.33333300  0.66666700  0.75000000
   0.33333300  0.66666700  0.14383796
   0.66666700  0.33333300  0.64383796
   0.33333300  0.66666700  0.35616204
   0.66666700  0.33333300  0.85616204
2H-MoS2                                 
           1
     3.172814   -0.000000    0.000000
    -1.586407    2.747737   -0.000000
     0.000000    0.000000   14.642616
   Mo   S 
   2   4
Direct configuration=     7
   0.66666700  0.33333300  0.25000000
   0.33333300  0.66666700  0.75000000
   0.33333300  0.66666700  0.14301932
   0.66666700  0.33333300  0.64301932
   0.33333300  0.66666700  0.35698068
   0.66666700  0.33333300  0.85698068
2H-MoS2                                 
           1
     3.177444   -0.000000    0.000000
    -1.588722    2.751746   -0.000000
     0.000000    0.000000   14.393422
   Mo   S 
   2   4
Direct configuration=     8
   0.66666700  0.33333300  0.25000000
   0.33333300  0.66666700  0.75000000
   0.33333300  0.66666700  0.14136811
   0.66666700  0.33333300  0.64136811
   0.33333300  0.66666700  0.35863189
   0.66666700  0.33333300  0.85863189
2H-MoS2                                 
           1
     3.186703   -0.000000    0.000000
    -1.593352    2.759765   -0.000000
     0.000000    0.000000   13.895033
   Mo   S 
   2   4
Direct configuration=     9
   0.66666700  0.33333300  0.25000000
   0.33333300  0.66666700  0.75000000
   0.33333300  0.66666700  0.13800852
   0.66666700  0.33333300  0.63800852
   0.33333300  0.66666700  0.36199148
   0.66666700  0.33333300  0.86199148
2H-MoS2                                 
           1
     3.186461   -0.000000   -0.000000
    -1.593231    2.759556   -0.000000
     0.000000    0.000000   13.858376
   Mo   S 
   2   4
Direct configuration=    10
   0.66666700  0.33333300  0.25000000
   0.33333300  0.66666700  0.75000000
   0.33333300  0.66666700  0.13748291
   0.66666700  0.33333300  0.63748291
   0.33333300  0.66666700  0.36251709
   0.66666700  0.33333300  0.86251709
2H-MoS2                                 
           1
     3.186009   -0.000000   -0.000000
    -1.593005    2.759164   -0.000000
     0.000000    0.000000   13.789940
   Mo   S 
   2   4
Direct configuration=    11
   0.66666700  0.33333300  0.25000000
   0.33333300  0.66666700  0.75000000
   0.33333300  0.66666700  0.13649905
   0.66666700  0.33333300  0.63649905
   0.33333300  0.66666700  0.36350095
   0.66666700  0.33333300  0.86350095
2H-MoS2                                 
           1
     3.181818   -0.000000   -0.000000
    -1.590909    2.755534   -0.000000
     0.000000    0.000000   13.760598
   Mo   S 
   2   4
Direct configuration=    12
   0.66666700  0.33333300  0.25000000
   0.33333300  0.66666700  0.75000000
   0.33333300  0.66666700  0.13618727
   0.66666700  0.33333300  0.63618727
   0.33333300  0.66666700  0.36381273
   0.66666700  0.33333300  0.86381273
2H-MoS2                                 
           1
     3.179290   -0.000000   -0.000000
    -1.589645    2.753345   -0.000000
     0.000000    0.000000   13.742903
   Mo   S 
   2   4
Direct configuration=    13
   0.66666700  0.33333300  0.25000000
   0.33333300  0.66666700  0.75000000
   0.33333300  0.66666700  0.13599885
   0.66666700  0.33333300  0.63599885
   0.33333300  0.66666700  0.36400115
   0.66666700  0.33333300  0.86400115
2H-MoS2                                 
           1
     3.179273   -0.000000   -0.000000
    -1.589637    2.753331   -0.000000
     0.000000    0.000000   13.744715
   Mo   S 
   2   4
Direct configuration=    14
   0.66666700  0.33333300  0.25000000
   0.33333300  0.66666700  0.75000000
   0.33333300  0.66666700  0.13606388
   0.66666700  0.33333300  0.63606388
   0.33333300  0.66666700  0.36393612
   0.66666700  0.33333300  0.86393612
2H-MoS2                                 
           1
     3.179268   -0.000000   -0.000000
    -1.589634    2.753326   -0.000000
     0.000000    0.000000   13.745283
   Mo   S 
   2   4
Direct configuration=    15
   0.66666700  0.33333300  0.25000000
   0.33333300  0.66666700  0.75000000
   0.33333300  0.66666700  0.13608426
   0.66666700  0.33333300  0.63608426
   0.33333300  0.66666700  0.36391574
   0.66666700  0.33333300  0.86391574
