
     Program PHONON v.6.2 (svn rev. 14038) starts on 11May2018 at 10:14:50 

     This program is part of the open-source Quantum ESPRESSO suite
     for quantum simulation of materials; please cite
         "P. Giannozzi et al., J. Phys.:Condens. Matter 21 395502 (2009);
         "P. Giannozzi et al., J. Phys.:Condens. Matter 29 465901 (2017);
          URL http://www.quantum-espresso.org", 
     in publications or presentations arising from this work. More details at
     http://www.quantum-espresso.org/quote

     Parallel version (MPI), running on   128 processors

     MPI processes distributed on     8 nodes
     R & G space division:  proc/nbgrp/npool/nimage =     128

     Reading data from directory:
     ./out/mos2.save/

     IMPORTANT: XC functional enforced from input :
     Exchange-correlation      = PBE ( 1  4  3  4 0 0)
     Any further DFT definition will be discarded
     Please, verify this is what you really want

               file S.pbe-mt_fhi.UPF: wavefunction(s)  4f renormalized
               file Mo.pbe-mt_fhi.UPF: wavefunction(s)  4f renormalized
 
     Parallelization info
     --------------------
     sticks:   dense  smooth     PW     G-vecs:    dense   smooth      PW
     Min           4       3      1                  396      277      41
     Max           5       4      2                  439      318      67
     Sum         625     499    163                54119    38907    7213
 

     Calculation of q =    0.0000000   0.0000000   0.0000000

     MoTe2 Phonon calculation                                                   

     bravais-lattice index     =            0
     lattice parameter (alat)  =       6.0154  a.u.
     unit-cell volume          =     812.4260 (a.u.)^3
     number of atoms/cell      =            6
     number of atomic types    =            2
     kinetic-energy cut-off    =      50.0000  Ry
     charge density cut-off    =     250.0000  Ry
     convergence threshold     =      1.0E-10
     beta                      =       0.7000
     number of iterations used =            4
     Exchange-correlation      = PBE ( 1  4  3  4 0 0)


     celldm(1)=    6.01538  celldm(2)=    0.00000  celldm(3)=    0.00000
     celldm(4)=    0.00000  celldm(5)=    0.00000  celldm(6)=    0.00000

     crystal axes: (cart. coord. in units of alat)
               a(1) = (  1.0000  0.0000  0.0000 )  
               a(2) = ( -0.5000  0.8660  0.0000 )  
               a(3) = (  0.0000  0.0000  4.3099 )  

     reciprocal axes: (cart. coord. in units 2 pi/alat)
               b(1) = (  1.0000  0.5774  0.0000 )  
               b(2) = (  0.0000  1.1547  0.0000 )  
               b(3) = (  0.0000  0.0000  0.2320 )  


     Atoms inside the unit cell: 

     Cartesian axes

     site n.  atom      mass           positions (alat units)
        1     Mo  95.9500   tau(    1) = (    0.50000    0.28867    1.07748  )
        2     Mo  95.9500   tau(    2) = (   -0.00000    0.57734    3.23244  )
        3     S   32.0000   tau(    3) = (   -0.00000    0.57734    0.58255  )
        4     S   32.0000   tau(    4) = (    0.50000    0.28867    2.73751  )
        5     S   32.0000   tau(    5) = (   -0.00000    0.57734    1.57241  )
        6     S   32.0000   tau(    6) = (    0.50000    0.28867    3.72737  )

     Computing dynamical matrix for 
                    q = (   0.0000000   0.0000000   0.0000000 )
 
      5 Sym.Ops. (with q -> -q+G )


     G cutoff =  229.1426  (    439 G-vectors)     FFT grid: ( 32, 32,135)
     G cutoff =  183.3141  (    298 G-vectors)  smooth grid: ( 27, 27,120)

     number of k points=  1024  fd smearing, width (Ry)=  0.0050

     PseudoPot. # 1 for S  read from file:
     /home/rehnd/.local/espresso-5.2.0/pseudo/S.pbe-mt_fhi.UPF
     MD5 check sum: 8d6311f2b0c6b1fe55ff6ee81ecbd648
     Pseudo is Norm-conserving, Zval =  6.0
     Generated using FHI98PP, converted with fhi2upf.x v.5.0.2
     Using radial grid of  501 points,  3 beta functions with: 
                l(1) =   0
                l(2) =   1
                l(3) =   3

     PseudoPot. # 2 for Mo read from file:
     /home/rehnd/.local/espresso-5.2.0/pseudo/Mo.pbe-mt_fhi.UPF
     MD5 check sum: 18396533d2e139d8400b78c5161bcdb0
     Pseudo is Norm-conserving, Zval =  6.0
     Generated using FHI98PP, converted with fhi2upf.x v.5.0.2
     Using radial grid of  541 points,  3 beta functions with: 
                l(1) =   0
                l(2) =   2
                l(3) =   3

     Mode symmetry, C_2h (2/m)  point group:


     Atomic displacements:
     There are  18 irreducible representations

     Representation     1      1 modes -A_g  To be done

     Representation     2      1 modes -A_g  To be done

     Representation     3      1 modes -A_g  To be done

     Representation     4      1 modes -A_g  To be done

     Representation     5      1 modes -A_g  To be done

     Representation     6      1 modes -A_g  To be done

     Representation     7      1 modes -B_g  To be done

     Representation     8      1 modes -B_g  To be done

     Representation     9      1 modes -B_g  To be done

     Representation    10      1 modes -A_u  To be done

     Representation    11      1 modes -A_u  To be done

     Representation    12      1 modes -A_u  To be done

     Representation    13      1 modes -B_u  To be done

     Representation    14      1 modes -B_u  To be done

     Representation    15      1 modes -B_u  To be done

     Representation    16      1 modes -B_u  To be done

     Representation    17      1 modes -B_u  To be done

     Representation    18      1 modes -B_u  To be done



     Alpha used in Ewald sum =   2.3000
     PHONON       :  0m58.73s CPU     1m 0.19s WALL



     Representation #  1 mode #   1

     Self-consistent Calculation
 
     Pert. #  1: Fermi energy shift (Ry) =    -2.5886E+00     2.0329E-20

      iter #   1 total cpu time :   115.2 secs   av.it.:   7.9
      thresh= 1.000E-02 alpha_mix =  0.700 |ddv_scf|^2 =  4.148E-05
 
     Pert. #  1: Fermi energy shift (Ry) =     2.4926E+00     4.2352E-21

      iter #   2 total cpu time :   197.1 secs   av.it.:  14.6
      thresh= 6.440E-04 alpha_mix =  0.700 |ddv_scf|^2 =  1.719E-03
 
     Pert. #  1: Fermi energy shift (Ry) =    -3.4034E-02     2.0329E-20

      iter #   3 total cpu time :   262.5 secs   av.it.:  11.1
      thresh= 4.146E-03 alpha_mix =  0.700 |ddv_scf|^2 =  1.132E-08
 
     Pert. #  1: Fermi energy shift (Ry) =    -4.8950E-02     2.0329E-20

      iter #   4 total cpu time :   348.5 secs   av.it.:  15.3
      thresh= 1.064E-05 alpha_mix =  0.700 |ddv_scf|^2 =  2.376E-08
 
     Pert. #  1: Fermi energy shift (Ry) =    -3.6253E-02     2.0329E-20

      iter #   5 total cpu time :   423.5 secs   av.it.:  12.9
      thresh= 1.541E-05 alpha_mix =  0.700 |ddv_scf|^2 =  4.390E-10
 
     Pert. #  1: Fermi energy shift (Ry) =    -3.9011E-02     2.0329E-20

      iter #   6 total cpu time :   500.1 secs   av.it.:  12.9
      thresh= 2.095E-06 alpha_mix =  0.700 |ddv_scf|^2 =  3.501E-11

     End of self-consistent calculation

     Convergence has been achieved 


     Representation #  2 mode #   2

     Self-consistent Calculation
 
     Pert. #  1: Fermi energy shift (Ry) =    -2.3738E+01     8.4703E-22

      iter #   1 total cpu time :   559.0 secs   av.it.:   8.6
      thresh= 1.000E-02 alpha_mix =  0.700 |ddv_scf|^2 =  5.550E-05
 
     Pert. #  1: Fermi energy shift (Ry) =    -3.3738E+00    -6.7763E-21

      iter #   2 total cpu time :   645.4 secs   av.it.:  15.4
      thresh= 7.450E-04 alpha_mix =  0.700 |ddv_scf|^2 =  2.032E-03
 
     Pert. #  1: Fermi energy shift (Ry) =    -1.3014E+00    -5.2940E-23

      iter #   3 total cpu time :   714.2 secs   av.it.:  11.8
      thresh= 4.508E-03 alpha_mix =  0.700 |ddv_scf|^2 =  1.030E-05
 
     Pert. #  1: Fermi energy shift (Ry) =     1.7146E+00    -8.4703E-22

      iter #   4 total cpu time :   791.5 secs   av.it.:  13.7
      thresh= 3.209E-04 alpha_mix =  0.700 |ddv_scf|^2 =  6.951E-07
 
     Pert. #  1: Fermi energy shift (Ry) =    -4.1076E-01    -4.2352E-22

      iter #   5 total cpu time :   873.1 secs   av.it.:  14.4
      thresh= 8.337E-05 alpha_mix =  0.700 |ddv_scf|^2 =  6.638E-08
 
     Pert. #  1: Fermi energy shift (Ry) =     1.9082E-01    -4.2352E-22

      iter #   6 total cpu time :   955.4 secs   av.it.:  13.9
      thresh= 2.576E-05 alpha_mix =  0.700 |ddv_scf|^2 =  2.188E-11

     End of self-consistent calculation

     Convergence has been achieved 


     Representation #  3 mode #   3

     Self-consistent Calculation
 
     Pert. #  1: Fermi energy shift (Ry) =    -1.3855E-01     0.0000E+00

      iter #   1 total cpu time :  1012.1 secs   av.it.:   8.1
      thresh= 1.000E-02 alpha_mix =  0.700 |ddv_scf|^2 =  7.833E-05
 
     Pert. #  1: Fermi energy shift (Ry) =    -3.4538E+00     0.0000E+00

      iter #   2 total cpu time :  1093.8 secs   av.it.:  14.6
      thresh= 8.850E-04 alpha_mix =  0.700 |ddv_scf|^2 =  3.248E-03
 
     Pert. #  1: Fermi energy shift (Ry) =     4.6175E-02     0.0000E+00

      iter #   3 total cpu time :  1159.2 secs   av.it.:  11.1
      thresh= 5.699E-03 alpha_mix =  0.700 |ddv_scf|^2 =  2.209E-08
 
     Pert. #  1: Fermi energy shift (Ry) =     6.9773E-02     0.0000E+00

      iter #   4 total cpu time :  1244.0 secs   av.it.:  15.2
      thresh= 1.486E-05 alpha_mix =  0.700 |ddv_scf|^2 =  4.489E-08
 
     Pert. #  1: Fermi energy shift (Ry) =     6.0572E-02     0.0000E+00

      iter #   5 total cpu time :  1319.6 secs   av.it.:  12.8
      thresh= 2.119E-05 alpha_mix =  0.700 |ddv_scf|^2 =  7.183E-10
 
     Pert. #  1: Fermi energy shift (Ry) =     5.5417E-02     0.0000E+00

      iter #   6 total cpu time :  1394.8 secs   av.it.:  12.9
      thresh= 2.680E-06 alpha_mix =  0.700 |ddv_scf|^2 =  5.795E-11

     End of self-consistent calculation

     Convergence has been achieved 


     Representation #  4 mode #   4

     Self-consistent Calculation
 
     Pert. #  1: Fermi energy shift (Ry) =     2.4622E+01     4.2352E-22

      iter #   1 total cpu time :  1453.1 secs   av.it.:   8.6
      thresh= 1.000E-02 alpha_mix =  0.700 |ddv_scf|^2 =  5.547E-05
 
     Pert. #  1: Fermi energy shift (Ry) =    -1.9762E+00     1.6941E-20

      iter #   2 total cpu time :  1539.3 secs   av.it.:  15.4
      thresh= 7.448E-04 alpha_mix =  0.700 |ddv_scf|^2 =  2.031E-03
 
     Pert. #  1: Fermi energy shift (Ry) =     1.6342E+00    -4.2352E-22

      iter #   3 total cpu time :  1607.5 secs   av.it.:  11.8
      thresh= 4.506E-03 alpha_mix =  0.700 |ddv_scf|^2 =  1.029E-05
 
     Pert. #  1: Fermi energy shift (Ry) =    -1.5779E+00    -1.3235E-22

      iter #   4 total cpu time :  1684.2 secs   av.it.:  13.7
      thresh= 3.208E-04 alpha_mix =  0.700 |ddv_scf|^2 =  6.949E-07
 
     Pert. #  1: Fermi energy shift (Ry) =     4.5842E-01     1.2705E-21

      iter #   5 total cpu time :  1764.8 secs   av.it.:  14.4
      thresh= 8.336E-05 alpha_mix =  0.700 |ddv_scf|^2 =  6.635E-08
 
     Pert. #  1: Fermi energy shift (Ry) =    -1.1125E-01     8.4703E-22

      iter #   6 total cpu time :  1845.4 secs   av.it.:  13.9
      thresh= 2.576E-05 alpha_mix =  0.700 |ddv_scf|^2 =  2.224E-11

     End of self-consistent calculation

     Convergence has been achieved 


     Representation #  5 mode #   5

     Self-consistent Calculation
 
     Pert. #  1: Fermi energy shift (Ry) =    -9.7148E-01    -8.4703E-22

      iter #   1 total cpu time :  1895.9 secs   av.it.:   7.0
      thresh= 1.000E-02 alpha_mix =  0.700 |ddv_scf|^2 =  5.920E-07
 
     Pert. #  1: Fermi energy shift (Ry) =    -7.0090E-03    -8.4703E-22

      iter #   2 total cpu time :  1983.5 secs   av.it.:  15.9
      thresh= 7.694E-05 alpha_mix =  0.700 |ddv_scf|^2 =  2.039E-05
 
     Pert. #  1: Fermi energy shift (Ry) =    -1.5080E-01    -8.4703E-22

      iter #   3 total cpu time :  2052.0 secs   av.it.:  11.8
      thresh= 4.516E-04 alpha_mix =  0.700 |ddv_scf|^2 =  1.207E-07
 
     Pert. #  1: Fermi energy shift (Ry) =     1.6472E-01    -8.4703E-22

      iter #   4 total cpu time :  2132.9 secs   av.it.:  14.2
      thresh= 3.474E-05 alpha_mix =  0.700 |ddv_scf|^2 =  4.131E-08
 
     Pert. #  1: Fermi energy shift (Ry) =    -1.3665E-01    -8.4703E-22

      iter #   5 total cpu time :  2212.2 secs   av.it.:  14.0
      thresh= 2.032E-05 alpha_mix =  0.700 |ddv_scf|^2 =  3.955E-10
 
     Pert. #  1: Fermi energy shift (Ry) =     9.7221E-03    -8.4703E-22

      iter #   6 total cpu time :  2296.1 secs   av.it.:  14.7
      thresh= 1.989E-06 alpha_mix =  0.700 |ddv_scf|^2 =  6.474E-11

     End of self-consistent calculation

     Convergence has been achieved 


     Representation #  6 mode #   6

     Self-consistent Calculation
 
     Pert. #  1: Fermi energy shift (Ry) =     1.1935E+00     0.0000E+00

      iter #   1 total cpu time :  2347.3 secs   av.it.:   7.0
      thresh= 1.000E-02 alpha_mix =  0.700 |ddv_scf|^2 =  5.591E-07
 
     Pert. #  1: Fermi energy shift (Ry) =     5.2536E-01     0.0000E+00

      iter #   2 total cpu time :  2436.0 secs   av.it.:  15.9
      thresh= 7.477E-05 alpha_mix =  0.700 |ddv_scf|^2 =  1.918E-05
 
     Pert. #  1: Fermi energy shift (Ry) =     1.0923E-01     0.0000E+00

      iter #   3 total cpu time :  2504.7 secs   av.it.:  11.8
      thresh= 4.380E-04 alpha_mix =  0.700 |ddv_scf|^2 =  1.148E-07
 
     Pert. #  1: Fermi energy shift (Ry) =    -1.7316E-01     0.0000E+00

      iter #   4 total cpu time :  2584.6 secs   av.it.:  14.2
      thresh= 3.389E-05 alpha_mix =  0.700 |ddv_scf|^2 =  4.129E-08
 
     Pert. #  1: Fermi energy shift (Ry) =     1.3128E-01     0.0000E+00

      iter #   5 total cpu time :  2664.0 secs   av.it.:  14.0
      thresh= 2.032E-05 alpha_mix =  0.700 |ddv_scf|^2 =  3.710E-10
 
     Pert. #  1: Fermi energy shift (Ry) =    -1.7655E-02     0.0000E+00

      iter #   6 total cpu time :  2748.2 secs   av.it.:  14.8
      thresh= 1.926E-06 alpha_mix =  0.700 |ddv_scf|^2 =  6.429E-11

     End of self-consistent calculation

     Convergence has been achieved 


     Representation #  7 mode #   7

     Self-consistent Calculation
 
     Pert. #  1: Fermi energy shift (Ry) =     0.0000E+00     0.0000E+00

      iter #   1 total cpu time :  2798.6 secs   av.it.:   6.9
      thresh= 1.000E-02 alpha_mix =  0.700 |ddv_scf|^2 =  3.530E-08
 
     Pert. #  1: Fermi energy shift (Ry) =     0.0000E+00     0.0000E+00

      iter #   2 total cpu time :  2889.3 secs   av.it.:  16.6
      thresh= 1.879E-05 alpha_mix =  0.700 |ddv_scf|^2 =  2.771E-09
 
     Pert. #  1: Fermi energy shift (Ry) =     0.0000E+00     0.0000E+00

      iter #   3 total cpu time :  2980.3 secs   av.it.:  16.2
      thresh= 5.264E-06 alpha_mix =  0.700 |ddv_scf|^2 =  2.375E-11

     End of self-consistent calculation

     Convergence has been achieved 


     Representation #  8 mode #   8

     Self-consistent Calculation
 
     Pert. #  1: Fermi energy shift (Ry) =     0.0000E+00     0.0000E+00

      iter #   1 total cpu time :  3031.3 secs   av.it.:   6.6
      thresh= 1.000E-02 alpha_mix =  0.700 |ddv_scf|^2 =  1.748E-08
 
     Pert. #  1: Fermi energy shift (Ry) =     0.0000E+00     0.0000E+00

      iter #   2 total cpu time :  3117.8 secs   av.it.:  15.5
      thresh= 1.322E-05 alpha_mix =  0.700 |ddv_scf|^2 =  6.835E-10
 
     Pert. #  1: Fermi energy shift (Ry) =     0.0000E+00     0.0000E+00

      iter #   3 total cpu time :  3205.0 secs   av.it.:  15.3
      thresh= 2.614E-06 alpha_mix =  0.700 |ddv_scf|^2 =  5.306E-11

     End of self-consistent calculation

     Convergence has been achieved 


     Representation #  9 mode #   9

     Self-consistent Calculation
 
     Pert. #  1: Fermi energy shift (Ry) =     1.3878E-17    -3.7616E-37

      iter #   1 total cpu time :  3255.3 secs   av.it.:   6.9
      thresh= 1.000E-02 alpha_mix =  0.700 |ddv_scf|^2 =  3.530E-08
 
     Pert. #  1: Fermi energy shift (Ry) =     1.3553E-20    -1.8808E-37

      iter #   2 total cpu time :  3346.9 secs   av.it.:  16.6
      thresh= 1.879E-05 alpha_mix =  0.700 |ddv_scf|^2 =  2.771E-09
 
     Pert. #  1: Fermi energy shift (Ry) =    -5.4210E-20    -1.8808E-37

      iter #   3 total cpu time :  3438.2 secs   av.it.:  16.2
      thresh= 5.264E-06 alpha_mix =  0.700 |ddv_scf|^2 =  2.389E-11

     End of self-consistent calculation

     Convergence has been achieved 


     Representation # 10 mode #  10

     Self-consistent Calculation
 
     Pert. #  1: Fermi energy shift (Ry) =    -1.0588E-22     1.5407E-33

      iter #   1 total cpu time :  3488.3 secs   av.it.:   6.9
      thresh= 1.000E-02 alpha_mix =  0.700 |ddv_scf|^2 =  3.486E-08
 
     Pert. #  1: Fermi energy shift (Ry) =    -2.6470E-23     3.0093E-36

      iter #   2 total cpu time :  3579.6 secs   av.it.:  16.6
      thresh= 1.867E-05 alpha_mix =  0.700 |ddv_scf|^2 =  2.712E-09
 
     Pert. #  1: Fermi energy shift (Ry) =    -5.2940E-23     1.5046E-36

      iter #   3 total cpu time :  3670.9 secs   av.it.:  16.2
      thresh= 5.208E-06 alpha_mix =  0.700 |ddv_scf|^2 =  2.419E-11

     End of self-consistent calculation

     Convergence has been achieved 


     Representation # 11 mode #  11

     Self-consistent Calculation
 
     Pert. #  1: Fermi energy shift (Ry) =     0.0000E+00     0.0000E+00

      iter #   1 total cpu time :  3721.1 secs   av.it.:   6.9
      thresh= 1.000E-02 alpha_mix =  0.700 |ddv_scf|^2 =  3.486E-08
 
     Pert. #  1: Fermi energy shift (Ry) =     0.0000E+00     0.0000E+00

      iter #   2 total cpu time :  3811.8 secs   av.it.:  16.6
      thresh= 1.867E-05 alpha_mix =  0.700 |ddv_scf|^2 =  2.713E-09
 
     Pert. #  1: Fermi energy shift (Ry) =     0.0000E+00     0.0000E+00

      iter #   3 total cpu time :  3903.4 secs   av.it.:  16.2
      thresh= 5.209E-06 alpha_mix =  0.700 |ddv_scf|^2 =  2.433E-11

     End of self-consistent calculation

     Convergence has been achieved 


     Representation # 12 mode #  12

     Self-consistent Calculation
 
     Pert. #  1: Fermi energy shift (Ry) =     0.0000E+00     0.0000E+00

      iter #   1 total cpu time :  3954.2 secs   av.it.:   6.6
      thresh= 1.000E-02 alpha_mix =  0.700 |ddv_scf|^2 =  1.747E-08
 
     Pert. #  1: Fermi energy shift (Ry) =     0.0000E+00     0.0000E+00

      iter #   2 total cpu time :  4040.6 secs   av.it.:  15.5
      thresh= 1.322E-05 alpha_mix =  0.700 |ddv_scf|^2 =  6.803E-10
 
     Pert. #  1: Fermi energy shift (Ry) =     0.0000E+00     0.0000E+00

      iter #   3 total cpu time :  4127.8 secs   av.it.:  15.4
      thresh= 2.608E-06 alpha_mix =  0.700 |ddv_scf|^2 =  5.282E-11

     End of self-consistent calculation

     Convergence has been achieved 


     Representation # 13 mode #  13

     Self-consistent Calculation
 
     Pert. #  1: Fermi energy shift (Ry) =     8.4703E-22     3.0815E-33

      iter #   1 total cpu time :  4177.9 secs   av.it.:   6.9
      thresh= 1.000E-02 alpha_mix =  0.700 |ddv_scf|^2 =  6.938E-08
 
     Pert. #  1: Fermi energy shift (Ry) =     2.1176E-22     6.0185E-36

      iter #   2 total cpu time :  4268.9 secs   av.it.:  16.4
      thresh= 2.634E-05 alpha_mix =  0.700 |ddv_scf|^2 =  3.364E-07
 
     Pert. #  1: Fermi energy shift (Ry) =     4.2352E-22     2.4074E-35

      iter #   3 total cpu time :  4344.6 secs   av.it.:  13.2
      thresh= 5.800E-05 alpha_mix =  0.700 |ddv_scf|^2 =  3.202E-08
 
     Pert. #  1: Fermi energy shift (Ry) =     4.2352E-22    -1.2037E-35

      iter #   4 total cpu time :  4424.5 secs   av.it.:  14.1
      thresh= 1.789E-05 alpha_mix =  0.700 |ddv_scf|^2 =  5.763E-10
 
     Pert. #  1: Fermi energy shift (Ry) =     4.2352E-22     7.5232E-37

      iter #   5 total cpu time :  4505.3 secs   av.it.:  14.3
      thresh= 2.401E-06 alpha_mix =  0.700 |ddv_scf|^2 =  1.484E-10
 
     Pert. #  1: Fermi energy shift (Ry) =     4.2352E-22     3.7616E-37

      iter #   6 total cpu time :  4586.5 secs   av.it.:  14.3
      thresh= 1.218E-06 alpha_mix =  0.700 |ddv_scf|^2 =  1.164E-10
 
     Pert. #  1: Fermi energy shift (Ry) =     4.2352E-22    -7.5232E-37

      iter #   7 total cpu time :  4667.2 secs   av.it.:  13.9
      thresh= 1.079E-06 alpha_mix =  0.700 |ddv_scf|^2 =  2.641E-11

     End of self-consistent calculation

     Convergence has been achieved 


     Representation # 14 mode #  14

     Self-consistent Calculation
 
     Pert. #  1: Fermi energy shift (Ry) =     0.0000E+00     0.0000E+00

      iter #   1 total cpu time :  4722.6 secs   av.it.:   7.9
      thresh= 1.000E-02 alpha_mix =  0.700 |ddv_scf|^2 =  1.347E-05
 
     Pert. #  1: Fermi energy shift (Ry) =     0.0000E+00     0.0000E+00

      iter #   2 total cpu time :  4806.8 secs   av.it.:  14.9
      thresh= 3.670E-04 alpha_mix =  0.700 |ddv_scf|^2 =  1.309E-04
 
     Pert. #  1: Fermi energy shift (Ry) =     0.0000E+00     0.0000E+00

      iter #   3 total cpu time :  4881.0 secs   av.it.:  12.8
      thresh= 1.144E-03 alpha_mix =  0.700 |ddv_scf|^2 =  1.044E-06
 
     Pert. #  1: Fermi energy shift (Ry) =     0.0000E+00     0.0000E+00

      iter #   4 total cpu time :  4959.1 secs   av.it.:  13.8
      thresh= 1.022E-04 alpha_mix =  0.700 |ddv_scf|^2 =  4.041E-08
 
     Pert. #  1: Fermi energy shift (Ry) =     0.0000E+00     0.0000E+00

      iter #   5 total cpu time :  5034.4 secs   av.it.:  13.2
      thresh= 2.010E-05 alpha_mix =  0.700 |ddv_scf|^2 =  1.738E-08
 
     Pert. #  1: Fermi energy shift (Ry) =     0.0000E+00     0.0000E+00

      iter #   6 total cpu time :  5114.1 secs   av.it.:  13.8
      thresh= 1.318E-05 alpha_mix =  0.700 |ddv_scf|^2 =  9.336E-11

     End of self-consistent calculation

     Convergence has been achieved 


     Representation # 15 mode #  15

     Self-consistent Calculation
 
     Pert. #  1: Fermi energy shift (Ry) =     0.0000E+00     0.0000E+00

      iter #   1 total cpu time :  5169.2 secs   av.it.:   7.6
      thresh= 1.000E-02 alpha_mix =  0.700 |ddv_scf|^2 =  3.685E-06
 
     Pert. #  1: Fermi energy shift (Ry) =     0.0000E+00     0.0000E+00

      iter #   2 total cpu time :  5254.3 secs   av.it.:  15.3
      thresh= 1.920E-04 alpha_mix =  0.700 |ddv_scf|^2 =  2.206E-05
 
     Pert. #  1: Fermi energy shift (Ry) =     0.0000E+00     0.0000E+00

      iter #   3 total cpu time :  5329.0 secs   av.it.:  13.2
      thresh= 4.697E-04 alpha_mix =  0.700 |ddv_scf|^2 =  9.701E-09
 
     Pert. #  1: Fermi energy shift (Ry) =     0.0000E+00     0.0000E+00

      iter #   4 total cpu time :  5410.8 secs   av.it.:  14.2
      thresh= 9.849E-06 alpha_mix =  0.700 |ddv_scf|^2 =  7.391E-11

     End of self-consistent calculation

     Convergence has been achieved 


     Representation # 16 mode #  16

     Self-consistent Calculation
 
     Pert. #  1: Fermi energy shift (Ry) =     0.0000E+00     0.0000E+00

      iter #   1 total cpu time :  5466.2 secs   av.it.:   7.8
      thresh= 1.000E-02 alpha_mix =  0.700 |ddv_scf|^2 =  8.861E-06
 
     Pert. #  1: Fermi energy shift (Ry) =     0.0000E+00     0.0000E+00

      iter #   2 total cpu time :  5550.8 secs   av.it.:  15.0
      thresh= 2.977E-04 alpha_mix =  0.700 |ddv_scf|^2 =  8.595E-05
 
     Pert. #  1: Fermi energy shift (Ry) =     0.0000E+00     0.0000E+00

      iter #   3 total cpu time :  5623.9 secs   av.it.:  12.8
      thresh= 9.271E-04 alpha_mix =  0.700 |ddv_scf|^2 =  6.928E-07
 
     Pert. #  1: Fermi energy shift (Ry) =     0.0000E+00     0.0000E+00

      iter #   4 total cpu time :  5702.1 secs   av.it.:  13.8
      thresh= 8.323E-05 alpha_mix =  0.700 |ddv_scf|^2 =  3.118E-08
 
     Pert. #  1: Fermi energy shift (Ry) =     0.0000E+00     0.0000E+00

      iter #   5 total cpu time :  5778.4 secs   av.it.:  13.2
      thresh= 1.766E-05 alpha_mix =  0.700 |ddv_scf|^2 =  1.221E-08
 
     Pert. #  1: Fermi energy shift (Ry) =     0.0000E+00     0.0000E+00

      iter #   6 total cpu time :  5858.3 secs   av.it.:  13.8
      thresh= 1.105E-05 alpha_mix =  0.700 |ddv_scf|^2 =  8.890E-11

     End of self-consistent calculation

     Convergence has been achieved 


     Representation # 17 mode #  17

     Self-consistent Calculation
 
     Pert. #  1: Fermi energy shift (Ry) =     0.0000E+00     0.0000E+00

      iter #   1 total cpu time :  5911.7 secs   av.it.:   7.5
      thresh= 1.000E-02 alpha_mix =  0.700 |ddv_scf|^2 =  4.678E-06
 
     Pert. #  1: Fermi energy shift (Ry) =     0.0000E+00     0.0000E+00

      iter #   2 total cpu time :  5996.8 secs   av.it.:  15.2
      thresh= 2.163E-04 alpha_mix =  0.700 |ddv_scf|^2 =  4.518E-05
 
     Pert. #  1: Fermi energy shift (Ry) =     0.0000E+00     0.0000E+00

      iter #   3 total cpu time :  6071.4 secs   av.it.:  12.8
      thresh= 6.722E-04 alpha_mix =  0.700 |ddv_scf|^2 =  3.735E-07
 
     Pert. #  1: Fermi energy shift (Ry) =     0.0000E+00     0.0000E+00

      iter #   4 total cpu time :  6150.3 secs   av.it.:  13.8
      thresh= 6.111E-05 alpha_mix =  0.700 |ddv_scf|^2 =  2.205E-08
 
     Pert. #  1: Fermi energy shift (Ry) =     0.0000E+00     0.0000E+00

      iter #   5 total cpu time :  6226.0 secs   av.it.:  13.3
      thresh= 1.485E-05 alpha_mix =  0.700 |ddv_scf|^2 =  7.128E-09
 
     Pert. #  1: Fermi energy shift (Ry) =     0.0000E+00     0.0000E+00

      iter #   6 total cpu time :  6306.6 secs   av.it.:  13.8
      thresh= 8.442E-06 alpha_mix =  0.700 |ddv_scf|^2 =  8.906E-11

     End of self-consistent calculation

     Convergence has been achieved 


     Representation # 18 mode #  18

     Self-consistent Calculation
 
     Pert. #  1: Fermi energy shift (Ry) =    -6.7763E-21    -2.4652E-32

      iter #   1 total cpu time :  6359.5 secs   av.it.:   7.0
      thresh= 1.000E-02 alpha_mix =  0.700 |ddv_scf|^2 =  2.797E-07
 
     Pert. #  1: Fermi energy shift (Ry) =    -6.7763E-21     2.4074E-35

      iter #   2 total cpu time :  6448.7 secs   av.it.:  15.9
      thresh= 5.288E-05 alpha_mix =  0.700 |ddv_scf|^2 =  1.578E-06
 
     Pert. #  1: Fermi energy shift (Ry) =    -6.7763E-21    -3.0093E-36

      iter #   3 total cpu time :  6523.7 secs   av.it.:  13.2
      thresh= 1.256E-04 alpha_mix =  0.700 |ddv_scf|^2 =  2.045E-09
 
     Pert. #  1: Fermi energy shift (Ry) =    -6.7763E-21     2.4074E-35

      iter #   4 total cpu time :  6609.9 secs   av.it.:  15.0
      thresh= 4.523E-06 alpha_mix =  0.700 |ddv_scf|^2 =  5.135E-11

     End of self-consistent calculation

     Convergence has been achieved 
 
     Number of q in the star =    1
     List of q in the star:
          1   0.000000000   0.000000000   0.000000000

     Diagonalizing the dynamical matrix

     q = (    0.000000000   0.000000000   0.000000000 ) 

 **************************************************************************
     freq (    1) =      -3.153851 [THz] =    -105.201154 [cm-1]
     freq (    2) =       0.300226 [THz] =      10.014471 [cm-1]
     freq (    3) =       1.876312 [THz] =      62.587026 [cm-1]
     freq (    4) =       2.605947 [THz] =      86.925029 [cm-1]
     freq (    5) =       2.991758 [THz] =      99.794291 [cm-1]
     freq (    6) =       3.014589 [THz] =     100.555876 [cm-1]
     freq (    7) =       8.243471 [THz] =     274.972587 [cm-1]
     freq (    8) =       8.321182 [THz] =     277.564768 [cm-1]
     freq (    9) =       8.822353 [THz] =     294.282031 [cm-1]
     freq (   10) =       8.829010 [THz] =     294.504070 [cm-1]
     freq (   11) =      10.251604 [THz] =     341.956691 [cm-1]
     freq (   12) =      11.021875 [THz] =     367.650177 [cm-1]
     freq (   13) =      11.023348 [THz] =     367.699303 [cm-1]
     freq (   14) =      11.129342 [THz] =     371.234877 [cm-1]
     freq (   15) =      11.132582 [THz] =     371.342949 [cm-1]
     freq (   16) =      12.453885 [THz] =     415.416891 [cm-1]
     freq (   17) =      13.172108 [THz] =     439.374220 [cm-1]
     freq (   18) =      13.997197 [THz] =     466.896235 [cm-1]
 **************************************************************************

     Mode symmetry, C_2h (2/m)  point group:

     freq (  1 -  1) =       -105.2  [cm-1]   --> A_g             R  
     freq (  2 -  2) =         10.0  [cm-1]   --> A_g             R  
     freq (  3 -  3) =         62.6  [cm-1]   --> B_u             I  
     freq (  4 -  4) =         86.9  [cm-1]   --> B_u             I  
     freq (  5 -  5) =         99.8  [cm-1]   --> A_u             I  
     freq (  6 -  6) =        100.6  [cm-1]   --> B_g             R  
     freq (  7 -  7) =        275.0  [cm-1]   --> B_u             I  
     freq (  8 -  8) =        277.6  [cm-1]   --> A_g             R  
     freq (  9 -  9) =        294.3  [cm-1]   --> A_u             I  
     freq ( 10 - 10) =        294.5  [cm-1]   --> B_g             R  
     freq ( 11 - 11) =        342.0  [cm-1]   --> B_u             I  
     freq ( 12 - 12) =        367.7  [cm-1]   --> B_g             R  
     freq ( 13 - 13) =        367.7  [cm-1]   --> A_u             I  
     freq ( 14 - 14) =        371.2  [cm-1]   --> A_g             R  
     freq ( 15 - 15) =        371.3  [cm-1]   --> B_u             I  
     freq ( 16 - 16) =        415.4  [cm-1]   --> A_g             R  
     freq ( 17 - 17) =        439.4  [cm-1]   --> B_u             I  
     freq ( 18 - 18) =        466.9  [cm-1]   --> A_g             R  
 
     PHONON       :     1h47m CPU        1h50m WALL

     INITIALIZATION: 
     phq_setup    :      0.02s CPU      0.02s WALL (       1 calls)
     phq_init     :      4.03s CPU      4.07s WALL (       1 calls)
 
     phq_init     :      4.03s CPU      4.07s WALL (       1 calls)
     init_vloc    :      0.00s CPU      0.00s WALL (       1 calls)
     init_us_1    :      0.00s CPU      0.00s WALL (       1 calls)
 
     DYNAMICAL MATRIX:
     dynmat0      :      3.30s CPU      3.32s WALL (       1 calls)
     phqscf       :   6417.17s CPU   6550.57s WALL (       1 calls)
     dynmatrix    :      0.00s CPU      0.01s WALL (       1 calls)
 
     phqscf       :   6417.17s CPU   6550.57s WALL (       1 calls)
     solve_linter :   6401.36s CPU   6534.28s WALL (      18 calls)
     drhodv       :     15.74s CPU     16.06s WALL (      18 calls)
 
     dynmat0      :      3.30s CPU      3.32s WALL (       1 calls)
     dynmat_us    :      3.30s CPU      3.31s WALL (       1 calls)
     d2ionq       :      0.00s CPU      0.00s WALL (       1 calls)
 
     dynmat_us    :      3.30s CPU      3.31s WALL (       1 calls)
 
     phqscf       :   6417.17s CPU   6550.57s WALL (       1 calls)
     solve_linter :   6401.36s CPU   6534.28s WALL (      18 calls)
 
     solve_linter :   6401.36s CPU   6534.28s WALL (      18 calls)
     dvqpsi_us    :    103.05s CPU    104.55s WALL (   18432 calls)
     ortho        :     27.47s CPU     26.24s WALL (   89088 calls)
     cgsolve      :   5514.52s CPU   5593.09s WALL (   89088 calls)
     incdrhoscf   :    402.42s CPU    409.55s WALL (   89088 calls)
     vpsifft      :    287.04s CPU    291.07s WALL (   70656 calls)
     dv_of_drho   :      0.33s CPU      0.34s WALL (      87 calls)
     mix_pot      :      0.14s CPU      0.60s WALL (      87 calls)
     ef_shift     :      0.25s CPU     31.26s WALL (     105 calls)
     localdos     :     48.78s CPU     49.47s WALL (      18 calls)
     psymdvscf    :      3.07s CPU      3.34s WALL (      87 calls)
 
     dvqpsi_us    :    103.05s CPU    104.55s WALL (   18432 calls)
     dvqpsi_us_on :      9.67s CPU      9.80s WALL (   18432 calls)
 
     cgsolve      :   5514.52s CPU   5593.09s WALL (   89088 calls)
     ch_psi       :   5319.53s CPU   5395.14s WALL ( 1688475 calls)
 
     ch_psi       :   5319.53s CPU   5395.14s WALL ( 1688475 calls)
     h_psi        :   4918.76s CPU   4990.43s WALL ( 1688475 calls)
     last         :    390.17s CPU    392.08s WALL ( 1688475 calls)
 
     h_psi        :   4918.76s CPU   4990.43s WALL ( 1688475 calls)
     add_vuspsi   :     77.07s CPU     78.61s WALL ( 1688475 calls)
 
     incdrhoscf   :    402.42s CPU    409.55s WALL (   89088 calls)
 
 
      General routines
     calbec       :    488.44s CPU    489.74s WALL ( 3479350 calls)
     fft          :      0.37s CPU      0.41s WALL (    1339 calls)
     ffts         :     46.30s CPU     46.82s WALL (  350725 calls)
     fftw         :   5281.62s CPU   5348.96s WALL (49323334 calls)
     davcio       :      3.39s CPU     44.38s WALL (  433624 calls)
     write_rec    :      0.15s CPU      0.91s WALL (     105 calls)
 
 
     PHONON       :     1h47m CPU        1h50m WALL

 
   This run was terminated on:  12: 5: 1  11May2018            

=------------------------------------------------------------------------------=
   JOB DONE.
=------------------------------------------------------------------------------=
