<?xml version="1.0" encoding="ISO-8859-1"?>
<modeling>
 <generator>
  <i name="program" type="string">vasp </i>
  <i name="version" type="string">5.4.4.18Apr17-6-g9f103f2a35  </i>
  <i name="subversion" type="string">(build Jan 06 2022 15:41:42) complex            parallel </i>
  <i name="platform" type="string">LinuxIFC </i>
  <i name="date" type="string">2022 02 14 </i>
  <i name="time" type="string">16:17:57 </i>
 </generator>
 <incar>
  <i type="string" name="SYSTEM"> MoTe2</i>
  <i type="string" name="PREC">accurate</i>
  <i type="int" name="IBRION">    -1</i>
  <i name="EDIFF">      0.00000001</i>
  <i type="int" name="NSW">     1</i>
  <i type="int" name="ISYM">     2</i>
  <i name="ENCUT">    400.00000000</i>
  <i type="int" name="NBANDS">    65</i>
  <i type="int" name="NEDOS">  3000</i>
  <i type="logical" name="LREAL"> F  </i>
  <i type="int" name="ISMEAR">     0</i>
  <i name="SIGMA">      0.05000000</i>
  <i type="logical" name="LWAVE"> T  </i>
  <i type="logical" name="LASPH"> T  </i>
  <v type="int" name="KPOINT_BSE">    -1     0     0     0</v>
  <i type="logical" name="LASPH"> T  </i>
  <i type="logical" name="LWANNIER90"> T  </i>
 </incar>
 <structure name="primitive_cell" >
  <crystal>
   <varray name="basis" >
    <v>       1.58449996      -2.74443443       0.00000000 </v>
    <v>       1.58449996       2.74443443       0.00000000 </v>
    <v>       0.00000000       0.00000000      12.32400036 </v>
   </varray>
   <i name="volume">    107.18321699 </i>
   <varray name="rec_basis" >
    <v>       0.31555697      -0.18218690       0.00000000 </v>
    <v>       0.31555697       0.18218690       0.00000000 </v>
    <v>       0.00000000       0.00000000       0.08114248 </v>
   </varray>
  </crystal>
  <varray name="positions" >
   <v>       0.33333333      -0.33333333       0.25000000 </v>
   <v>      -0.33333333       0.33333333       0.37699997 </v>
   <v>      -0.33333333       0.33333333       0.12300002 </v>
   <v>       0.33333333      -0.33333333      -0.12299999 </v>
   <v>       0.33333333      -0.33333333      -0.37699997 </v>
   <v>      -0.33333333       0.33333333      -0.25000000 </v>
  </varray>
 </structure>
 <varray name="primitive_index" >
  <v type="int" >        1 </v>
  <v type="int" >        4 </v>
  <v type="int" >        5 </v>
  <v type="int" >        6 </v>
  <v type="int" >        3 </v>
  <v type="int" >        2 </v>
 </varray>
 <kpoints>
  <generation param="Gamma">
   <v type="int" name="divisions">      12       12        1 </v>
   <v name="usershift">      0.00000000       0.00000000       0.00000000 </v>
   <v name="genvec1">      0.08333333      -0.00000000       0.00000000 </v>
   <v name="genvec2">     -0.00000000       0.08333333       0.00000000 </v>
   <v name="genvec3">      0.00000000       0.00000000       1.00000000 </v>
   <v name="shift">      0.00000000       0.00000000       0.00000000 </v>
  </generation>
  <varray name="kpointlist" >
   <v>       0.00000000       0.00000000       0.00000000 </v>
   <v>       0.08333333      -0.00000000       0.00000000 </v>
   <v>       0.16666667      -0.00000000       0.00000000 </v>
   <v>       0.25000000       0.00000000       0.00000000 </v>
   <v>       0.33333333       0.00000000       0.00000000 </v>
   <v>       0.41666667      -0.00000000       0.00000000 </v>
   <v>       0.50000000       0.00000000       0.00000000 </v>
   <v>       0.08333333       0.08333333       0.00000000 </v>
   <v>       0.16666667       0.08333333       0.00000000 </v>
   <v>       0.25000000       0.08333333       0.00000000 </v>
   <v>       0.33333333       0.08333333       0.00000000 </v>
   <v>       0.41666667       0.08333333       0.00000000 </v>
   <v>       0.16666667       0.16666667       0.00000000 </v>
   <v>       0.25000000       0.16666667       0.00000000 </v>
   <v>       0.33333333       0.16666667       0.00000000 </v>
   <v>       0.41666667       0.16666667       0.00000000 </v>
   <v>       0.25000000       0.25000000       0.00000000 </v>
   <v>       0.33333333       0.25000000       0.00000000 </v>
   <v>       0.33333333       0.33333333       0.00000000 </v>
  </varray>
  <varray name="weights" >
   <v>       0.00694444 </v>
   <v>       0.04166667 </v>
   <v>       0.04166667 </v>
   <v>       0.04166667 </v>
   <v>       0.04166667 </v>
   <v>       0.04166667 </v>
   <v>       0.02083333 </v>
   <v>       0.04166667 </v>
   <v>       0.08333333 </v>
   <v>       0.08333333 </v>
   <v>       0.08333333 </v>
   <v>       0.08333333 </v>
   <v>       0.04166667 </v>
   <v>       0.08333333 </v>
   <v>       0.08333333 </v>
   <v>       0.04166667 </v>
   <v>       0.04166667 </v>
   <v>       0.08333333 </v>
   <v>       0.01388889 </v>
  </varray>
 </kpoints>
 <parameters>
  <separator name="general" >
   <i type="string" name="SYSTEM">MoTe2</i>
   <i type="logical" name="LCOMPAT"> F  </i>
  </separator>
  <separator name="electronic" >
   <i type="string" name="PREC">accura</i>
   <i name="ENMAX">    400.00000000</i>
   <i name="ENAUG">    964.74100000</i>
   <i name="EDIFF">      0.00000001</i>
   <i type="int" name="IALGO">    38</i>
   <i type="int" name="IWAVPR">    10</i>
   <i type="int" name="NBANDS">    65</i>
   <i name="NELECT">     52.00000000</i>
   <i type="int" name="TURBO">     0</i>
   <i type="int" name="IRESTART">     0</i>
   <i type="int" name="NREBOOT">     0</i>
   <i type="int" name="NMIN">     0</i>
   <i name="EREF">      0.00000000</i>
   <separator name="electronic smearing" >
    <i type="int" name="ISMEAR">     0</i>
    <i name="SIGMA">      0.05000000</i>
    <i name="KSPACING">      0.50000000</i>
    <i type="logical" name="KGAMMA"> T  </i>
   </separator>
   <separator name="electronic projectors" >
    <i type="logical" name="LREAL"> F  </i>
    <v name="ROPT">      0.00000000      0.00000000</v>
    <i type="int" name="LMAXPAW">  -100</i>
    <i type="int" name="LMAXMIX">     2</i>
    <i type="logical" name="NLSPLINE"> F  </i>
   </separator>
   <separator name="electronic startup" >
    <i type="int" name="ISTART">     0</i>
    <i type="int" name="ICHARG">     2</i>
    <i type="int" name="INIWAV">     1</i>
   </separator>
   <separator name="electronic spin" >
    <i type="int" name="ISPIN">     1</i>
    <i type="logical" name="LNONCOLLINEAR"> F  </i>
    <v name="MAGMOM">      1.00000000      1.00000000      1.00000000      1.00000000      1.00000000      1.00000000</v>
    <i name="NUPDOWN">     -1.00000000</i>
    <i type="logical" name="LSORBIT"> F  </i>
    <v name="SAXIS">      0.00000000      0.00000000      1.00000000</v>
    <i type="logical" name="LSPIRAL"> F  </i>
    <v name="QSPIRAL">      0.00000000      0.00000000      0.00000000</v>
    <i type="logical" name="LZEROZ"> F  </i>
   </separator>
   <separator name="electronic exchange-correlation" >
    <i type="logical" name="LASPH"> T  </i>
    <i type="logical" name="LMETAGGA"> F  </i>
   </separator>
   <separator name="electronic convergence" >
    <i type="int" name="NELM">    60</i>
    <i type="int" name="NELMDL">    -5</i>
    <i type="int" name="NELMIN">     2</i>
    <i name="ENINI">    400.00000000</i>
    <separator name="electronic convergence detail" >
     <i type="logical" name="LDIAG"> T  </i>
     <i type="logical" name="LSUBROT"> F  </i>
     <i name="WEIMIN">      0.00000000</i>
     <i name="EBREAK">      0.00000000</i>
     <i name="DEPER">      0.30000000</i>
     <i type="int" name="NRMM">     4</i>
     <i name="TIME">      0.40000000</i>
    </separator>
   </separator>
   <separator name="electronic mixer" >
    <i name="AMIX">      0.40000000</i>
    <i name="BMIX">      1.00000000</i>
    <i name="AMIN">      0.10000000</i>
    <i name="AMIX_MAG">      1.60000000</i>
    <i name="BMIX_MAG">      1.00000000</i>
    <separator name="electronic mixer details" >
     <i type="int" name="IMIX">     4</i>
     <i type="logical" name="MIXFIRST"> F  </i>
     <i type="int" name="MAXMIX">   -45</i>
     <i name="WC">    100.00000000</i>
     <i type="int" name="INIMIX">     1</i>
     <i type="int" name="MIXPRE">     1</i>
     <i type="int" name="MREMOVE">     5</i>
    </separator>
   </separator>
   <separator name="electronic dipolcorrection" >
    <i type="logical" name="LDIPOL"> F  </i>
    <i type="logical" name="LMONO"> F  </i>
    <i type="int" name="IDIPOL">     0</i>
    <i name="EPSILON">      1.00000000</i>
    <v name="DIPOL">   -100.00000000   -100.00000000   -100.00000000</v>
    <i name="EFIELD">      0.00000000</i>
   </separator>
  </separator>
  <separator name="grids" >
   <i type="int" name="NGX">    24</i>
   <i type="int" name="NGY">    24</i>
   <i type="int" name="NGZ">    80</i>
   <i type="int" name="NGXF">    48</i>
   <i type="int" name="NGYF">    48</i>
   <i type="int" name="NGZF">   160</i>
   <i type="logical" name="ADDGRID"> F  </i>
  </separator>
  <separator name="ionic" >
   <i type="int" name="NSW">     1</i>
   <i type="int" name="IBRION">    -1</i>
   <i type="int" name="MDALGO">     0</i>
   <i type="int" name="ISIF">     2</i>
   <i name="PSTRESS">      0.00000000</i>
   <i name="EDIFFG">      0.00000010</i>
   <i type="int" name="NFREE">     0</i>
   <i name="POTIM">      0.50000000</i>
   <i name="SMASS">     -3.00000000</i>
   <i name="SCALEE">      1.00000000</i>
  </separator>
  <separator name="ionic md" >
   <i name="TEBEG">      0.00010000</i>
   <i name="TEEND">      0.00010000</i>
   <i type="int" name="NBLOCK">     1</i>
   <i type="int" name="KBLOCK">     1</i>
   <i type="int" name="NPACO">   256</i>
   <i name="APACO">     16.00000000</i>
  </separator>
  <separator name="symmetry" >
   <i type="int" name="ISYM">     2</i>
   <i name="SYMPREC">      0.00001000</i>
  </separator>
  <separator name="dos" >
   <i type="int" name="LORBIT">     0</i>
   <v name="RWIGS">     -1.00000000     -1.00000000</v>
   <i type="int" name="NEDOS">  3000</i>
   <i name="EMIN">     10.00000000</i>
   <i name="EMAX">    -10.00000000</i>
   <i name="EFERMI">      0.00000000</i>
  </separator>
  <separator name="writing" >
   <i type="int" name="NWRITE">     2</i>
   <i type="logical" name="LWAVE"> T  </i>
   <i type="logical" name="LDOWNSAMPLE"> F  </i>
   <i type="logical" name="LCHARG"> T  </i>
   <i type="logical" name="LPARD"> F  </i>
   <i type="logical" name="LVTOT"> F  </i>
   <i type="logical" name="LVHAR"> F  </i>
   <i type="logical" name="LELF"> F  </i>
   <i type="logical" name="LOPTICS"> F  </i>
   <v name="STM">      0.00000000      0.00000000      0.00000000      0.00000000      0.00000000      0.00000000      0.00000000</v>
  </separator>
  <separator name="performance" >
   <i type="int" name="NPAR">     1</i>
   <i type="int" name="NSIM">     4</i>
   <i type="int" name="NBLK">    -1</i>
   <i type="logical" name="LPLANE"> T  </i>
   <i type="logical" name="LSCALAPACK"> T  </i>
   <i type="logical" name="LSCAAWARE"> F  </i>
   <i type="logical" name="LSCALU"> F  </i>
   <i type="logical" name="LASYNC"> F  </i>
   <i type="logical" name="LORBITALREAL"> F  </i>
  </separator>
  <separator name="miscellaneous" >
   <i type="int" name="IDIOT">     3</i>
   <i type="int" name="ISPECIAL">     0</i>
   <i type="logical" name="LMUSIC"> F  </i>
   <v name="POMASS">     95.94000000     32.06600000</v>
   <v name="DARWINR">      0.00000000      0.00000000</v>
   <v name="DARWINV">      1.00000000      1.00000000</v>
   <i type="logical" name="LCORR"> T  </i>
  </separator>
  <i type="logical" name="GGA_COMPAT"> T  </i>
  <i type="logical" name="LBERRY"> F  </i>
  <i type="int" name="ICORELEVEL">     0</i>
  <i type="logical" name="LDAU"> F  </i>
  <i type="int" name="I_CONSTRAINED_M">     0</i>
  <separator name="electronic exchange-correlation" >
   <i type="string" name="GGA">--</i>
   <i type="int" name="VOSKOWN">     0</i>
   <i type="logical" name="LHFCALC"> F  </i>
   <i type="string" name="PRECFOCK"></i>
   <i type="logical" name="LSYMGRAD"> F  </i>
   <i type="logical" name="LHFONE"> F  </i>
   <i type="logical" name="LRHFCALC"> F  </i>
   <i type="logical" name="LTHOMAS"> F  </i>
   <i type="logical" name="LMODELHF"> F  </i>
   <i name="ENCUT4O">     -1.00000000</i>
   <i type="int" name="EXXOEP">     0</i>
   <i type="int" name="FOURORBIT">     0</i>
   <i name="AEXX">      0.00000000</i>
   <i name="HFALPHA">      0.00000000</i>
   <i name="MCALPHA">      0.00000000</i>
   <i name="ALDAX">      1.00000000</i>
   <i name="AGGAX">      1.00000000</i>
   <i name="ALDAC">      1.00000000</i>
   <i name="AGGAC">      1.00000000</i>
   <i type="int" name="NKREDX">     1</i>
   <i type="int" name="NKREDY">     1</i>
   <i type="int" name="NKREDZ">     1</i>
   <i type="logical" name="SHIFTRED"> F  </i>
   <i type="logical" name="ODDONLY"> F  </i>
   <i type="logical" name="EVENONLY"> F  </i>
   <i type="int" name="LMAXFOCK">     0</i>
   <i type="int" name="NMAXFOCKAE">     0</i>
   <i type="logical" name="LFOCKAEDFT"> F  </i>
   <i name="HFSCREEN">      0.00000000</i>
   <i name="HFSCREENC">      0.00000000</i>
   <i type="int" name="NBANDSGWLOW">     0</i>
  </separator>
  <separator name="vdW DFT" >
   <i type="logical" name="LUSE_VDW"> F  </i>
   <i name="Zab_VDW">     -0.84910000</i>
   <i name="PARAM1">      0.12340000</i>
   <i name="PARAM2">      1.00000000</i>
   <i name="PARAM3">      0.00000000</i>
  </separator>
  <separator name="model GW" >
   <i type="int" name="MODEL_GW">     0</i>
   <i name="MODEL_EPS0">     10.71832170</i>
   <i name="MODEL_ALPHA">      1.00000000</i>
  </separator>
  <separator name="linear response parameters" >
   <i type="logical" name="LEPSILON"> F  </i>
   <i type="logical" name="LRPA"> F  </i>
   <i type="logical" name="LNABLA"> F  </i>
   <i type="logical" name="LVEL"> F  </i>
   <i type="int" name="KINTER">     0</i>
   <i name="CSHIFT">      0.10000000</i>
   <i name="OMEGAMAX">     -1.00000000</i>
   <i name="DEG_THRESHOLD">      0.00200000</i>
   <i name="RTIME">     -0.10000000</i>
   <i name="WPLASMAI">      0.00000000</i>
   <v name="DFIELD">      0.00000000      0.00000000      0.00000000</v>
   <v name="WPLASMA">      0.00000000      0.00000000      0.00000000      0.00000000      0.00000000      0.00000000      0.00000000      0.00000000      0.00000000</v>
  </separator>
  <separator name="orbital magnetization" >
   <i type="logical" name="NUCIND"> F  </i>
   <v name="MAGPOS">      0.00000000      0.00000000      0.00000000</v>
   <i type="logical" name="LNICSALL"> T  </i>
   <i type="logical" name="ORBITALMAG"> F  </i>
   <i type="logical" name="LMAGBLOCH"> F  </i>
   <i type="logical" name="LCHIMAG"> F  </i>
   <i type="logical" name="LGAUGE"> T  </i>
   <i type="int" name="MAGATOM">     0</i>
   <v name="MAGDIPOL">      0.00000000      0.00000000      0.00000000</v>
   <v name="AVECCONST">      0.00000000      0.00000000      0.00000000</v>
  </separator>
  <separator name="response functions" >
   <i type="logical" name="LADDER"> F  </i>
   <i type="logical" name="LRPAFORCE"> F  </i>
   <i type="logical" name="LFXC"> F  </i>
   <i type="logical" name="LHARTREE"> T  </i>
   <i type="int" name="IBSE">     0</i>
   <v type="int" name="KPOINT">    -1     0     0     0</v>
   <i type="logical" name="LTCTE"> F  </i>
   <i type="logical" name="LTETE"> F  </i>
   <i type="logical" name="LTRIPLET"> F  </i>
   <i type="logical" name="LFXCEPS"> F  </i>
   <i type="logical" name="LFXHEG"> F  </i>
   <i type="int" name="NATURALO">     2</i>
   <i type="logical" name="L2ORDER"> F  </i>
   <i type="logical" name="LMP2LT"> F  </i>
   <i type="logical" name="LUSEW"> F  </i>
   <i name="ENCUTGW">     -2.00000000</i>
   <i name="ENCUTGWSOFT">     -2.00000000</i>
   <i name="ENCUTLF">     -1.00000000</i>
   <i type="int" name="LMAXMP2">    -1</i>
   <i name="SCISSOR">      0.00000000</i>
   <i type="int" name="NOMEGA">     0</i>
   <i type="int" name="NOMEGAR">     0</i>
   <i type="int" name="NBANDSGW">    -1</i>
   <i type="int" name="NBANDSO">    -1</i>
   <i type="int" name="NBANDSV">    -1</i>
   <i type="int" name="NELM">     1</i>
   <i type="int" name="NELMHF">     1</i>
   <i type="int" name="DIM">     3</i>
   <i type="int" name="ANTIRES">     0</i>
   <i name="OMEGAMAX">    -30.00000000</i>
   <i name="OMEGAMIN">    -30.00000000</i>
   <i name="OMEGATL">   -200.00000000</i>
   <i type="int" name="OMEGAGRID">   140</i>
   <i name="CSHIFT">     -0.10000000</i>
   <i type="logical" name="SELFENERGY"> F  </i>
   <i type="logical" name="LSPECTRAL"> F  </i>
   <i type="logical" name="LSPECTRALGW"> F  </i>
   <i type="logical" name="LSINGLES"> F  </i>
   <i type="logical" name="LFERMIGW"> F  </i>
   <i type="logical" name="ODDONLYGW"> F  </i>
   <i type="logical" name="EVENONLYGW"> F  </i>
   <i type="int" name="NKREDLFX">     1</i>
   <i type="int" name="NKREDLFY">     1</i>
   <i type="int" name="NKREDLFZ">     1</i>
   <i type="int" name="MAXMEM">  2800</i>
   <i type="int" name="TELESCOPE">     0</i>
   <i type="int" name="TAUPAR">     1</i>
   <i type="int" name="OMEGAPAR">    -1</i>
   <i name="LAMBDA">      1.00000000</i>
  </separator>
  <separator name="External order field" >
   <i name="OFIELD_KAPPA">      0.00000000</i>
   <v name="OFIELD_K">      0.00000000      0.00000000      0.00000000</v>
   <i name="OFIELD_Q6_NEAR">      0.00000000</i>
   <i name="OFIELD_Q6_FAR">      0.00000000</i>
   <i name="OFIELD_A">      0.00000000</i>
  </separator>
 </parameters>
 <atominfo>
  <atoms>       6 </atoms>
  <types>       2 </types>
  <array name="atoms" >
   <dimension dim="1">ion</dimension>
   <field type="string">element</field>
   <field type="int">atomtype</field>
   <set>
    <rc><c>Mo</c><c>   1</c></rc>
    <rc><c>Mo</c><c>   1</c></rc>
    <rc><c>S </c><c>   2</c></rc>
    <rc><c>S </c><c>   2</c></rc>
    <rc><c>S </c><c>   2</c></rc>
    <rc><c>S </c><c>   2</c></rc>
   </set>
  </array>
  <array name="atomtypes" >
   <dimension dim="1">type</dimension>
   <field type="int">atomspertype</field>
   <field type="string">element</field>
   <field>mass</field>
   <field>valence</field>
   <field type="string">pseudopotential</field>
   <set>
    <rc><c>   2</c><c>Mo</c><c>     95.94000000</c><c>     14.00000000</c><c>  PAW_PBE Mo_sv_GW 05Dec2013            </c></rc>
    <rc><c>   4</c><c>S </c><c>     32.06600000</c><c>      6.00000000</c><c>  PAW_PBE S 06Sep2000                   </c></rc>
   </set>
  </array>
 </atominfo>
 <structure name="initialpos" >
  <crystal>
   <varray name="basis" >
    <v>       1.58449996      -2.74443443       0.00000000 </v>
    <v>       1.58449996       2.74443443       0.00000000 </v>
    <v>       0.00000000       0.00000000      12.32400036 </v>
   </varray>
   <i name="volume">    107.18321699 </i>
   <varray name="rec_basis" >
    <v>       0.31555697      -0.18218690       0.00000000 </v>
    <v>       0.31555697       0.18218690       0.00000000 </v>
    <v>       0.00000000       0.00000000       0.08114248 </v>
   </varray>
  </crystal>
  <varray name="positions" >
   <v>       0.33333333       0.66666667       0.25000000 </v>
   <v>       0.66666667       0.33333333       0.75000000 </v>
   <v>       0.33333333       0.66666667       0.62300003 </v>
   <v>       0.66666667       0.33333333       0.37699997 </v>
   <v>       0.66666667       0.33333333       0.12300002 </v>
   <v>       0.33333333       0.66666667       0.87700001 </v>
  </varray>
  <varray name="velocities" >
   <v>       0.00000000       0.00000000       0.00000000 </v>
   <v>       0.00000000       0.00000000       0.00000000 </v>
   <v>       0.00000000       0.00000000       0.00000000 </v>
   <v>       0.00000000       0.00000000       0.00000000 </v>
   <v>       0.00000000       0.00000000       0.00000000 </v>
   <v>       0.00000000       0.00000000       0.00000000 </v>
  </varray>
 </structure>
 <calculation>
  <scstep>
   <time name="dav">    0.49    0.49</time>
   <time name="total">    0.87    1.03</time>
   <energy>
    <i name="alphaZ">    180.76238112 </i>
    <i name="ewald">  -3261.24820539 </i>
    <i name="hartreedc">  -1568.61366588 </i>
    <i name="XCdc">    183.03106568 </i>
    <i name="pawpsdc">   3887.43847535 </i>
    <i name="pawaedc">  -3865.63498672 </i>
    <i name="eentropy">     -0.00139365 </i>
    <i name="bandstr">    -52.77328876 </i>
    <i name="atom">   4830.14576584 </i>
    <i name="e_fr_energy">    333.10614758 </i>
    <i name="e_wo_entrp">    333.10754123 </i>
    <i name="e_0_energy">    333.10684441 </i>
   </energy>
  </scstep>
  <scstep>
   <time name="dav">    0.52    0.53</time>
   <time name="total">    0.52    0.53</time>
   <energy>
    <i name="e_fr_energy">    -27.06125464 </i>
    <i name="e_wo_entrp">    -27.06125464 </i>
    <i name="e_0_energy">    -27.06125464 </i>
   </energy>
  </scstep>
  <scstep>
   <time name="dav">    0.56    0.57</time>
   <time name="total">    0.56    0.57</time>
   <energy>
    <i name="e_fr_energy">    -51.40104064 </i>
    <i name="e_wo_entrp">    -51.40104064 </i>
    <i name="e_0_energy">    -51.40104064 </i>
   </energy>
  </scstep>
  <scstep>
   <time name="dav">    0.57    0.58</time>
   <time name="total">    0.57    0.58</time>
   <energy>
    <i name="e_fr_energy">    -52.21163052 </i>
    <i name="e_wo_entrp">    -52.21163052 </i>
    <i name="e_0_energy">    -52.21163052 </i>
   </energy>
  </scstep>
  <scstep>
   <time name="dav">    0.57    0.59</time>
   <time name="total">    0.63    0.64</time>
   <energy>
    <i name="e_fr_energy">    -52.24015784 </i>
    <i name="e_wo_entrp">    -52.24015784 </i>
    <i name="e_0_energy">    -52.24015784 </i>
   </energy>
  </scstep>
  <scstep>
   <time name="dav">    0.60    0.60</time>
   <time name="total">    1.17    1.19</time>
   <energy>
    <i name="e_fr_energy">    -46.74385783 </i>
    <i name="e_wo_entrp">    -46.74385783 </i>
    <i name="e_0_energy">    -46.74385783 </i>
   </energy>
  </scstep>
  <scstep>
   <time name="dav">    0.58    0.58</time>
   <time name="total">    1.15    1.16</time>
   <energy>
    <i name="e_fr_energy">    -45.22977341 </i>
    <i name="e_wo_entrp">    -45.22977341 </i>
    <i name="e_0_energy">    -45.22977341 </i>
   </energy>
  </scstep>
  <scstep>
   <time name="dav">    0.60    0.60</time>
   <time name="total">    1.17    1.19</time>
   <energy>
    <i name="e_fr_energy">    -45.18867809 </i>
    <i name="e_wo_entrp">    -45.18867809 </i>
    <i name="e_0_energy">    -45.18867809 </i>
   </energy>
  </scstep>
  <scstep>
   <time name="dav">    0.60    0.60</time>
   <time name="total">    1.18    1.19</time>
   <energy>
    <i name="e_fr_energy">    -45.15152410 </i>
    <i name="e_wo_entrp">    -45.15152410 </i>
    <i name="e_0_energy">    -45.15152410 </i>
   </energy>
  </scstep>
  <scstep>
   <time name="dav">    0.52    0.52</time>
   <time name="total">    1.09    1.10</time>
   <energy>
    <i name="e_fr_energy">    -45.15117321 </i>
    <i name="e_wo_entrp">    -45.15117321 </i>
    <i name="e_0_energy">    -45.15117321 </i>
   </energy>
  </scstep>
  <scstep>
   <time name="dav">    0.55    0.55</time>
   <time name="total">    1.12    1.14</time>
   <energy>
    <i name="e_fr_energy">    -45.15095847 </i>
    <i name="e_wo_entrp">    -45.15095847 </i>
    <i name="e_0_energy">    -45.15095847 </i>
   </energy>
  </scstep>
  <scstep>
   <time name="dav">    0.52    0.52</time>
   <time name="total">    1.10    1.11</time>
   <energy>
    <i name="e_fr_energy">    -45.15100081 </i>
    <i name="e_wo_entrp">    -45.15100081 </i>
    <i name="e_0_energy">    -45.15100081 </i>
   </energy>
  </scstep>
  <scstep>
   <time name="dav">    0.57    0.57</time>
   <time name="total">    1.15    1.16</time>
   <energy>
    <i name="e_fr_energy">    -45.15099732 </i>
    <i name="e_wo_entrp">    -45.15099732 </i>
    <i name="e_0_energy">    -45.15099732 </i>
   </energy>
  </scstep>
  <scstep>
   <time name="dav">    0.51    0.51</time>
   <time name="total">    1.08    1.09</time>
   <energy>
    <i name="e_fr_energy">    -45.15099644 </i>
    <i name="e_wo_entrp">    -45.15099644 </i>
    <i name="e_0_energy">    -45.15099644 </i>
   </energy>
  </scstep>
  <scstep>
   <time name="dav">    0.49    0.49</time>
   <time name="total">    1.07    1.08</time>
   <energy>
    <i name="e_fr_energy">    -45.15099687 </i>
    <i name="e_wo_entrp">    -45.15099687 </i>
    <i name="e_0_energy">    -45.15099687 </i>
   </energy>
  </scstep>
  <scstep>
   <time name="dav">    0.49    0.49</time>
   <time name="total">    1.07    1.08</time>
   <energy>
    <i name="e_fr_energy">    -45.15099702 </i>
    <i name="e_wo_entrp">    -45.15099702 </i>
    <i name="e_0_energy">    -45.15099702 </i>
   </energy>
  </scstep>
  <scstep>
   <time name="dav">    0.51    0.51</time>
   <time name="total">    1.09    1.09</time>
   <energy>
    <i name="e_fr_energy">    -45.15099701 </i>
    <i name="e_wo_entrp">    -45.15099701 </i>
    <i name="e_0_energy">    -45.15099701 </i>
   </energy>
  </scstep>
  <scstep>
   <time name="dav">    0.44    0.44</time>
   <time name="total">    1.02    1.03</time>
   <energy>
    <i name="e_fr_energy">    -45.15099702 </i>
    <i name="e_wo_entrp">    -45.15099702 </i>
    <i name="e_0_energy">    -45.15099702 </i>
   </energy>
  </scstep>
  <scstep>
   <time name="dav">    0.36    0.36</time>
   <time name="total">    0.88    0.89</time>
   <energy>
    <i name="alphaZ">    180.76238112 </i>
    <i name="ewald">  -3261.24820539 </i>
    <i name="hartreedc">  -1504.97734368 </i>
    <i name="XCdc">    181.08615151 </i>
    <i name="pawpsdc">   5218.64934341 </i>
    <i name="pawaedc">  -5197.84972562 </i>
    <i name="eentropy">     -0.00000000 </i>
    <i name="bandstr">   -491.71936420 </i>
    <i name="atom">   4830.14576584 </i>
    <i name="e_fr_energy">    -45.15099701 </i>
    <i name="e_wo_entrp">    -45.15099701 </i>
    <i name="e_0_energy">    -45.15099701 </i>
   </energy>
  </scstep>
  <structure>
   <crystal>
    <varray name="basis" >
     <v>       1.58449996      -2.74443443       0.00000000 </v>
     <v>       1.58449996       2.74443443       0.00000000 </v>
     <v>       0.00000000       0.00000000      12.32400036 </v>
    </varray>
    <i name="volume">    107.18321699 </i>
    <varray name="rec_basis" >
     <v>       0.31555697      -0.18218690       0.00000000 </v>
     <v>       0.31555697       0.18218690       0.00000000 </v>
     <v>       0.00000000       0.00000000       0.08114248 </v>
    </varray>
   </crystal>
   <varray name="positions" >
    <v>       0.33333333       0.66666667       0.25000000 </v>
    <v>       0.66666667       0.33333333       0.75000000 </v>
    <v>       0.33333333       0.66666667       0.62300003 </v>
    <v>       0.66666667       0.33333333       0.37699997 </v>
    <v>       0.66666667       0.33333333       0.12300002 </v>
    <v>       0.33333333       0.66666667       0.87700001 </v>
   </varray>
  </structure>
  <varray name="forces" >
   <v>      -0.00000000      -0.00000000      -0.00000000 </v>
   <v>       0.00000000       0.00000000      -0.00000000 </v>
   <v>       0.00000000       0.00000000       0.09921217 </v>
   <v>      -0.00000000      -0.00000000      -0.09921217 </v>
   <v>      -0.00000000      -0.00000000       0.09921217 </v>
   <v>       0.00000000       0.00000000      -0.09921217 </v>
  </varray>
  <varray name="stress" >
   <v>      16.57702199       0.00000000      -0.00000000 </v>
   <v>      -0.00000000      16.57702199       0.00000000 </v>
   <v>      -0.00000000      -0.00000000      24.03741960 </v>
  </varray>
  <energy>
   <i name="e_fr_energy">    -45.15099701 </i>
   <i name="e_wo_entrp">    -45.15099701 </i>
   <i name="e_0_energy">     -0.00000000 </i>
  </energy>
  <time name="totalsc">  280.10  282.19</time>
  <eigenvalues>
   <array>
    <dimension dim="1">band</dimension>
    <dimension dim="2">kpoint</dimension>
    <dimension dim="3">spin</dimension>
    <field>eigene</field>
    <field>occ</field>
    <set>
     <set comment="spin 1">
      <set comment="kpoint 1">
       <r>  -54.0737    1.0000 </r>
       <r>  -54.0736    1.0000 </r>
       <r>  -28.2165    1.0000 </r>
       <r>  -28.2163    1.0000 </r>
       <r>  -27.9967    1.0000 </r>
       <r>  -27.9967    1.0000 </r>
       <r>  -27.9967    1.0000 </r>
       <r>  -27.9967    1.0000 </r>
       <r>   -7.4915    1.0000 </r>
       <r>   -7.2177    1.0000 </r>
       <r>   -6.2922    1.0000 </r>
       <r>   -5.8452    1.0000 </r>
       <r>    0.5841    1.0000 </r>
       <r>    1.6155    1.0000 </r>
       <r>    3.9652    1.0000 </r>
       <r>    4.1841    1.0000 </r>
       <r>    4.1841    1.0000 </r>
       <r>    4.1974    1.0000 </r>
       <r>    4.1974    1.0000 </r>
       <r>    5.2778    1.0000 </r>
       <r>    5.2778    1.0000 </r>
       <r>    5.3246    1.0000 </r>
       <r>    5.3246    1.0000 </r>
       <r>    6.2570    1.0000 </r>
       <r>    6.3025    1.0000 </r>
       <r>    7.4404    1.0000 </r>
       <r>    9.5492    0.0000 </r>
       <r>    9.5492    0.0000 </r>
       <r>    9.5776    0.0000 </r>
       <r>    9.5776    0.0000 </r>
       <r>    9.7138    0.0000 </r>
       <r>    9.7138    0.0000 </r>
       <r>    9.8861    0.0000 </r>
       <r>    9.8861    0.0000 </r>
       <r>   13.0073    0.0000 </r>
       <r>   13.1441    0.0000 </r>
       <r>   15.5728    0.0000 </r>
       <r>   16.0693    0.0000 </r>
       <r>   16.1172    0.0000 </r>
       <r>   17.4597    0.0000 </r>
       <r>   17.4597    0.0000 </r>
       <r>   17.6674    0.0000 </r>
       <r>   17.8826    0.0000 </r>
       <r>   17.8826    0.0000 </r>
       <r>   19.0647    0.0000 </r>
       <r>   19.2820    0.0000 </r>
       <r>   19.2820    0.0000 </r>
       <r>   20.0254    0.0000 </r>
       <r>   20.0254    0.0000 </r>
       <r>   20.3236    0.0000 </r>
       <r>   22.2763    0.0000 </r>
       <r>   22.5574    0.0000 </r>
       <r>   22.6303    0.0000 </r>
       <r>   22.6303    0.0000 </r>
       <r>   22.7629    0.0000 </r>
       <r>   22.7629    0.0000 </r>
       <r>   23.2853    0.0000 </r>
       <r>   23.5515    0.0000 </r>
       <r>   23.5515    0.0000 </r>
       <r>   24.1755    0.0000 </r>
       <r>   24.1755    0.0000 </r>
       <r>   25.3202    0.0000 </r>
       <r>   26.0363    0.0000 </r>
       <r>   27.1304    0.0000 </r>
       <r>   27.3764    0.0000 </r>
      </set>
      <set comment="kpoint 2">
       <r>  -54.0711    1.0000 </r>
       <r>  -54.0710    1.0000 </r>
       <r>  -28.2113    1.0000 </r>
       <r>  -28.2111    1.0000 </r>
       <r>  -28.0234    1.0000 </r>
       <r>  -28.0233    1.0000 </r>
       <r>  -28.0028    1.0000 </r>
       <r>  -28.0027    1.0000 </r>
       <r>   -7.3867    1.0000 </r>
       <r>   -7.1145    1.0000 </r>
       <r>   -6.2418    1.0000 </r>
       <r>   -5.8079    1.0000 </r>
       <r>    0.7046    1.0000 </r>
       <r>    1.7327    1.0000 </r>
       <r>    3.7563    1.0000 </r>
       <r>    3.9472    1.0000 </r>
       <r>    3.9693    1.0000 </r>
       <r>    4.2896    1.0000 </r>
       <r>    4.3085    1.0000 </r>
       <r>    4.8884    1.0000 </r>
       <r>    5.1092    1.0000 </r>
       <r>    5.1609    1.0000 </r>
       <r>    5.4041    1.0000 </r>
       <r>    6.3117    1.0000 </r>
       <r>    6.3971    1.0000 </r>
       <r>    7.2364    1.0000 </r>
       <r>    9.4342    0.0000 </r>
       <r>    9.4768    0.0000 </r>
       <r>    9.5370    0.0000 </r>
       <r>    9.5859    0.0000 </r>
       <r>    9.6319    0.0000 </r>
       <r>    9.7118    0.0000 </r>
       <r>    9.7760    0.0000 </r>
       <r>    9.7803    0.0000 </r>
       <r>   13.4994    0.0000 </r>
       <r>   13.6238    0.0000 </r>
       <r>   16.0096    0.0000 </r>
       <r>   16.0609    0.0000 </r>
       <r>   16.5882    0.0000 </r>
       <r>   17.2601    0.0000 </r>
       <r>   17.6004    0.0000 </r>
       <r>   17.6758    0.0000 </r>
       <r>   17.7935    0.0000 </r>
       <r>   18.2213    0.0000 </r>
       <r>   18.5395    0.0000 </r>
       <r>   18.9344    0.0000 </r>
       <r>   19.2546    0.0000 </r>
       <r>   19.2825    0.0000 </r>
       <r>   20.1275    0.0000 </r>
       <r>   20.3750    0.0000 </r>
       <r>   22.0710    0.0000 </r>
       <r>   22.1658    0.0000 </r>
       <r>   22.1862    0.0000 </r>
       <r>   22.7436    0.0000 </r>
       <r>   23.0027    0.0000 </r>
       <r>   23.0064    0.0000 </r>
       <r>   23.6002    0.0000 </r>
       <r>   23.7084    0.0000 </r>
       <r>   23.9270    0.0000 </r>
       <r>   24.1120    0.0000 </r>
       <r>   24.4106    0.0000 </r>
       <r>   25.7842    0.0000 </r>
       <r>   27.0527    0.0000 </r>
       <r>   27.6717    0.0000 </r>
       <r>   28.0126    0.0000 </r>
      </set>
      <set comment="kpoint 3">
       <r>  -54.0639    1.0000 </r>
       <r>  -54.0638    1.0000 </r>
       <r>  -28.1970    1.0000 </r>
       <r>  -28.1969    1.0000 </r>
       <r>  -28.0955    1.0000 </r>
       <r>  -28.0955    1.0000 </r>
       <r>  -28.0193    1.0000 </r>
       <r>  -28.0192    1.0000 </r>
       <r>   -7.0872    1.0000 </r>
       <r>   -6.8219    1.0000 </r>
       <r>   -6.0977    1.0000 </r>
       <r>   -5.7024    1.0000 </r>
       <r>    1.0185    1.0000 </r>
       <r>    2.0124    1.0000 </r>
       <r>    3.3108    1.0000 </r>
       <r>    3.3911    1.0000 </r>
       <r>    3.4598    1.0000 </r>
       <r>    4.1769    1.0000 </r>
       <r>    4.5829    1.0000 </r>
       <r>    4.6182    1.0000 </r>
       <r>    4.7139    1.0000 </r>
       <r>    4.7751    1.0000 </r>
       <r>    5.3919    1.0000 </r>
       <r>    6.2619    1.0000 </r>
       <r>    6.2723    1.0000 </r>
       <r>    6.6713    1.0000 </r>
       <r>    8.9406    0.0000 </r>
       <r>    9.3026    0.0000 </r>
       <r>    9.3189    0.0000 </r>
       <r>    9.5079    0.0000 </r>
       <r>    9.5232    0.0000 </r>
       <r>    9.6252    0.0000 </r>
       <r>   10.0864    0.0000 </r>
       <r>   10.2246    0.0000 </r>
       <r>   14.4985    0.0000 </r>
       <r>   14.7164    0.0000 </r>
       <r>   16.0696    0.0000 </r>
       <r>   16.4061    0.0000 </r>
       <r>   16.6616    0.0000 </r>
       <r>   17.0262    0.0000 </r>
       <r>   17.2226    0.0000 </r>
       <r>   17.5357    0.0000 </r>
       <r>   18.0841    0.0000 </r>
       <r>   18.5713    0.0000 </r>
       <r>   18.6962    0.0000 </r>
       <r>   18.7578    0.0000 </r>
       <r>   19.1149    0.0000 </r>
       <r>   19.4141    0.0000 </r>
       <r>   20.1040    0.0000 </r>
       <r>   20.4624    0.0000 </r>
       <r>   21.1832    0.0000 </r>
       <r>   21.5080    0.0000 </r>
       <r>   21.5808    0.0000 </r>
       <r>   21.7271    0.0000 </r>
       <r>   23.1138    0.0000 </r>
       <r>   23.5358    0.0000 </r>
       <r>   23.5885    0.0000 </r>
       <r>   24.1243    0.0000 </r>
       <r>   24.1302    0.0000 </r>
       <r>   25.4977    0.0000 </r>
       <r>   26.4947    0.0000 </r>
       <r>   26.9764    0.0000 </r>
       <r>   27.9125    0.0000 </r>
       <r>   28.6266    0.0000 </r>
       <r>   28.7791    0.0000 </r>
      </set>
      <set comment="kpoint 4">
       <r>  -54.0540    1.0000 </r>
       <r>  -54.0540    1.0000 </r>
       <r>  -28.1928    1.0000 </r>
       <r>  -28.1927    1.0000 </r>
       <r>  -28.1775    1.0000 </r>
       <r>  -28.1774    1.0000 </r>
       <r>  -28.0417    1.0000 </r>
       <r>  -28.0417    1.0000 </r>
       <r>   -6.6396    1.0000 </r>
       <r>   -6.3920    1.0000 </r>
       <r>   -5.8828    1.0000 </r>
       <r>   -5.5500    1.0000 </r>
       <r>    1.3325    1.0000 </r>
       <r>    2.0899    1.0000 </r>
       <r>    2.7990    1.0000 </r>
       <r>    2.8278    1.0000 </r>
       <r>    3.1375    1.0000 </r>
       <r>    3.4119    1.0000 </r>
       <r>    4.2725    1.0000 </r>
       <r>    4.3422    1.0000 </r>
       <r>    4.9880    1.0000 </r>
       <r>    5.0549    1.0000 </r>
       <r>    5.1411    1.0000 </r>
       <r>    5.8302    1.0000 </r>
       <r>    5.9591    1.0000 </r>
       <r>    6.0829    1.0000 </r>
       <r>    8.6623    0.0000 </r>
       <r>    9.0441    0.0000 </r>
       <r>    9.2546    0.0000 </r>
       <r>    9.4938    0.0000 </r>
       <r>    9.5326    0.0000 </r>
       <r>   10.1461    0.0000 </r>
       <r>   10.4596    0.0000 </r>
       <r>   10.6950    0.0000 </r>
       <r>   14.8661    0.0000 </r>
       <r>   15.1580    0.0000 </r>
       <r>   15.5836    0.0000 </r>
       <r>   15.9461    0.0000 </r>
       <r>   16.0820    0.0000 </r>
       <r>   16.3377    0.0000 </r>
       <r>   17.2512    0.0000 </r>
       <r>   17.6165    0.0000 </r>
       <r>   18.4887    0.0000 </r>
       <r>   18.6337    0.0000 </r>
       <r>   19.6176    0.0000 </r>
       <r>   19.8185    0.0000 </r>
       <r>   19.8323    0.0000 </r>
       <r>   19.8555    0.0000 </r>
       <r>   19.8694    0.0000 </r>
       <r>   20.8021    0.0000 </r>
       <r>   20.9753    0.0000 </r>
       <r>   21.0842    0.0000 </r>
       <r>   21.1246    0.0000 </r>
       <r>   21.7265    0.0000 </r>
       <r>   22.1860    0.0000 </r>
       <r>   22.9843    0.0000 </r>
       <r>   24.1994    0.0000 </r>
       <r>   24.7277    0.0000 </r>
       <r>   25.3573    0.0000 </r>
       <r>   27.1073    0.0000 </r>
       <r>   27.3554    0.0000 </r>
       <r>   27.7620    0.0000 </r>
       <r>   28.4150    0.0000 </r>
       <r>   28.6089    0.0000 </r>
       <r>   28.6801    0.0000 </r>
      </set>
      <set comment="kpoint 5">
       <r>  -54.0442    1.0000 </r>
       <r>  -54.0441    1.0000 </r>
       <r>  -28.2886    1.0000 </r>
       <r>  -28.2885    1.0000 </r>
       <r>  -28.1579    1.0000 </r>
       <r>  -28.1579    1.0000 </r>
       <r>  -28.0641    1.0000 </r>
       <r>  -28.0640    1.0000 </r>
       <r>   -6.1278    1.0000 </r>
       <r>   -5.9170    1.0000 </r>
       <r>   -5.6389    1.0000 </r>
       <r>   -5.3892    1.0000 </r>
       <r>    1.2797    1.0000 </r>
       <r>    1.6838    1.0000 </r>
       <r>    2.3003    1.0000 </r>
       <r>    2.5415    1.0000 </r>
       <r>    2.7068    1.0000 </r>
       <r>    3.1707    1.0000 </r>
       <r>    3.9020    1.0000 </r>
       <r>    3.9777    1.0000 </r>
       <r>    4.8641    1.0000 </r>
       <r>    5.3795    1.0000 </r>
       <r>    5.3936    1.0000 </r>
       <r>    5.4978    1.0000 </r>
       <r>    5.6509    1.0000 </r>
       <r>    5.9072    1.0000 </r>
       <r>    8.8440    0.0000 </r>
       <r>    8.9407    0.0000 </r>
       <r>    9.0966    0.0000 </r>
       <r>    9.5540    0.0000 </r>
       <r>    9.9187    0.0000 </r>
       <r>   10.7140    0.0000 </r>
       <r>   10.7249    0.0000 </r>
       <r>   11.0480    0.0000 </r>
       <r>   14.1114    0.0000 </r>
       <r>   14.8627    0.0000 </r>
       <r>   14.9064    0.0000 </r>
       <r>   14.9924    0.0000 </r>
       <r>   15.0420    0.0000 </r>
       <r>   16.3499    0.0000 </r>
       <r>   17.1896    0.0000 </r>
       <r>   17.6185    0.0000 </r>
       <r>   18.3401    0.0000 </r>
       <r>   18.6368    0.0000 </r>
       <r>   18.9980    0.0000 </r>
       <r>   19.8266    0.0000 </r>
       <r>   20.3112    0.0000 </r>
       <r>   20.5015    0.0000 </r>
       <r>   21.0578    0.0000 </r>
       <r>   21.1611    0.0000 </r>
       <r>   21.7426    0.0000 </r>
       <r>   22.0706    0.0000 </r>
       <r>   22.1572    0.0000 </r>
       <r>   22.6851    0.0000 </r>
       <r>   22.7616    0.0000 </r>
       <r>   22.8728    0.0000 </r>
       <r>   24.6633    0.0000 </r>
       <r>   25.3313    0.0000 </r>
       <r>   25.9217    0.0000 </r>
       <r>   26.5154    0.0000 </r>
       <r>   27.4293    0.0000 </r>
       <r>   27.4894    0.0000 </r>
       <r>   27.4944    0.0000 </r>
       <r>   28.3675    0.0000 </r>
       <r>   29.4456    0.0000 </r>
      </set>
      <set comment="kpoint 6">
       <r>  -54.0369    1.0000 </r>
       <r>  -54.0368    1.0000 </r>
       <r>  -28.3578    1.0000 </r>
       <r>  -28.3578    1.0000 </r>
       <r>  -28.1435    1.0000 </r>
       <r>  -28.1435    1.0000 </r>
       <r>  -28.0804    1.0000 </r>
       <r>  -28.0803    1.0000 </r>
       <r>   -5.6867    1.0000 </r>
       <r>   -5.5346    1.0000 </r>
       <r>   -5.4290    1.0000 </r>
       <r>   -5.2728    1.0000 </r>
       <r>    0.9578    1.0000 </r>
       <r>    1.2712    1.0000 </r>
       <r>    1.9222    1.0000 </r>
       <r>    2.1965    1.0000 </r>
       <r>    2.3998    1.0000 </r>
       <r>    3.0716    1.0000 </r>
       <r>    3.6619    1.0000 </r>
       <r>    3.7410    1.0000 </r>
       <r>    4.7260    1.0000 </r>
       <r>    5.0868    1.0000 </r>
       <r>    5.6368    1.0000 </r>
       <r>    5.8115    1.0000 </r>
       <r>    5.8183    1.0000 </r>
       <r>    6.0769    1.0000 </r>
       <r>    8.9956    0.0000 </r>
       <r>    9.0771    0.0000 </r>
       <r>    9.2277    0.0000 </r>
       <r>    9.6508    0.0000 </r>
       <r>   10.2123    0.0000 </r>
       <r>   10.8423    0.0000 </r>
       <r>   11.1104    0.0000 </r>
       <r>   11.2477    0.0000 </r>
       <r>   13.1099    0.0000 </r>
       <r>   13.7439    0.0000 </r>
       <r>   14.3960    0.0000 </r>
       <r>   14.8275    0.0000 </r>
       <r>   15.0484    0.0000 </r>
       <r>   16.2949    0.0000 </r>
       <r>   16.3049    0.0000 </r>
       <r>   16.8124    0.0000 </r>
       <r>   17.7842    0.0000 </r>
       <r>   18.2308    0.0000 </r>
       <r>   19.0617    0.0000 </r>
       <r>   19.0905    0.0000 </r>
       <r>   21.1220    0.0000 </r>
       <r>   21.1549    0.0000 </r>
       <r>   21.6593    0.0000 </r>
       <r>   21.9158    0.0000 </r>
       <r>   23.1388    0.0000 </r>
       <r>   23.4177    0.0000 </r>
       <r>   23.4602    0.0000 </r>
       <r>   23.5083    0.0000 </r>
       <r>   24.0293    0.0000 </r>
       <r>   24.5028    0.0000 </r>
       <r>   25.0260    0.0000 </r>
       <r>   25.5672    0.0000 </r>
       <r>   25.6096    0.0000 </r>
       <r>   26.3689    0.0000 </r>
       <r>   26.9670    0.0000 </r>
       <r>   27.2289    0.0000 </r>
       <r>   27.3791    0.0000 </r>
       <r>   28.0667    0.0000 </r>
       <r>   29.8488    0.0000 </r>
      </set>
      <set comment="kpoint 7">
       <r>  -54.0342    1.0000 </r>
       <r>  -54.0341    1.0000 </r>
       <r>  -28.3830    1.0000 </r>
       <r>  -28.3830    1.0000 </r>
       <r>  -28.1382    1.0000 </r>
       <r>  -28.1382    1.0000 </r>
       <r>  -28.0863    1.0000 </r>
       <r>  -28.0862    1.0000 </r>
       <r>   -5.5002    1.0000 </r>
       <r>   -5.3901    1.0000 </r>
       <r>   -5.3368    1.0000 </r>
       <r>   -5.2379    1.0000 </r>
       <r>    0.7973    1.0000 </r>
       <r>    1.1069    1.0000 </r>
       <r>    1.7803    1.0000 </r>
       <r>    2.0081    1.0000 </r>
       <r>    2.3270    1.0000 </r>
       <r>    2.9873    1.0000 </r>
       <r>    3.5792    1.0000 </r>
       <r>    3.6594    1.0000 </r>
       <r>    4.7059    1.0000 </r>
       <r>    4.9631    1.0000 </r>
       <r>    5.7203    1.0000 </r>
       <r>    5.9200    1.0000 </r>
       <r>    6.0452    1.0000 </r>
       <r>    6.1720    1.0000 </r>
       <r>    9.0524    0.0000 </r>
       <r>    9.0980    0.0000 </r>
       <r>    9.4503    0.0000 </r>
       <r>    9.7116    0.0000 </r>
       <r>   10.3101    0.0000 </r>
       <r>   10.8791    0.0000 </r>
       <r>   11.2266    0.0000 </r>
       <r>   11.3102    0.0000 </r>
       <r>   12.7778    0.0000 </r>
       <r>   13.0486    0.0000 </r>
       <r>   14.2164    0.0000 </r>
       <r>   15.1797    0.0000 </r>
       <r>   15.2792    0.0000 </r>
       <r>   15.5694    0.0000 </r>
       <r>   16.2338    0.0000 </r>
       <r>   16.3301    0.0000 </r>
       <r>   17.4523    0.0000 </r>
       <r>   18.2479    0.0000 </r>
       <r>   18.7281    0.0000 </r>
       <r>   18.9624    0.0000 </r>
       <r>   21.4291    0.0000 </r>
       <r>   21.5605    0.0000 </r>
       <r>   21.7853    0.0000 </r>
       <r>   22.0324    0.0000 </r>
       <r>   23.8684    0.0000 </r>
       <r>   24.0964    0.0000 </r>
       <r>   24.2652    0.0000 </r>
       <r>   24.6231    0.0000 </r>
       <r>   24.6332    0.0000 </r>
       <r>   25.0861    0.0000 </r>
       <r>   25.3516    0.0000 </r>
       <r>   25.4695    0.0000 </r>
       <r>   25.7930    0.0000 </r>
       <r>   26.1965    0.0000 </r>
       <r>   26.3375    0.0000 </r>
       <r>   27.0436    0.0000 </r>
       <r>   28.0058    0.0000 </r>
       <r>   28.2633    0.0000 </r>
       <r>   28.9385    0.0000 </r>
      </set>
      <set comment="kpoint 8">
       <r>  -54.0662    1.0000 </r>
       <r>  -54.0661    1.0000 </r>
       <r>  -28.2015    1.0000 </r>
       <r>  -28.2014    1.0000 </r>
       <r>  -28.0714    1.0000 </r>
       <r>  -28.0714    1.0000 </r>
       <r>  -28.0154    1.0000 </r>
       <r>  -28.0154    1.0000 </r>
       <r>   -7.1844    1.0000 </r>
       <r>   -6.9165    1.0000 </r>
       <r>   -6.1444    1.0000 </r>
       <r>   -5.7363    1.0000 </r>
       <r>    0.9241    1.0000 </r>
       <r>    1.9372    1.0000 </r>
       <r>    3.4597    1.0000 </r>
       <r>    3.5728    1.0000 </r>
       <r>    3.5917    1.0000 </r>
       <r>    4.4419    1.0000 </r>
       <r>    4.4848    1.0000 </r>
       <r>    4.5064    1.0000 </r>
       <r>    4.7124    1.0000 </r>
       <r>    4.7925    1.0000 </r>
       <r>    5.5356    1.0000 </r>
       <r>    6.2933    1.0000 </r>
       <r>    6.4074    1.0000 </r>
       <r>    6.8524    1.0000 </r>
       <r>    9.0602    0.0000 </r>
       <r>    9.2488    0.0000 </r>
       <r>    9.4041    0.0000 </r>
       <r>    9.4537    0.0000 </r>
       <r>    9.5314    0.0000 </r>
       <r>    9.5825    0.0000 </r>
       <r>   10.0409    0.0000 </r>
       <r>   10.1457    0.0000 </r>
       <r>   14.2848    0.0000 </r>
       <r>   14.4369    0.0000 </r>
       <r>   16.0181    0.0000 </r>
       <r>   16.5525    0.0000 </r>
       <r>   17.0974    0.0000 </r>
       <r>   17.1324    0.0000 </r>
       <r>   17.1666    0.0000 </r>
       <r>   17.6538    0.0000 </r>
       <r>   17.9162    0.0000 </r>
       <r>   18.1496    0.0000 </r>
       <r>   18.3190    0.0000 </r>
       <r>   18.7728    0.0000 </r>
       <r>   18.8473    0.0000 </r>
       <r>   19.5030    0.0000 </r>
       <r>   20.2098    0.0000 </r>
       <r>   20.3166    0.0000 </r>
       <r>   21.4483    0.0000 </r>
       <r>   21.6720    0.0000 </r>
       <r>   21.9658    0.0000 </r>
       <r>   22.0402    0.0000 </r>
       <r>   23.1852    0.0000 </r>
       <r>   23.3144    0.0000 </r>
       <r>   23.7747    0.0000 </r>
       <r>   23.8241    0.0000 </r>
       <r>   23.9432    0.0000 </r>
       <r>   25.0396    0.0000 </r>
       <r>   25.9598    0.0000 </r>
       <r>   26.6573    0.0000 </r>
       <r>   27.9765    0.0000 </r>
       <r>   28.2145    0.0000 </r>
       <r>   28.4165    0.0000 </r>
      </set>
      <set comment="kpoint 9">
       <r>  -54.0576    1.0000 </r>
       <r>  -54.0576    1.0000 </r>
       <r>  -28.1846    1.0000 </r>
       <r>  -28.1846    1.0000 </r>
       <r>  -28.1526    1.0000 </r>
       <r>  -28.1526    1.0000 </r>
       <r>  -28.0383    1.0000 </r>
       <r>  -28.0383    1.0000 </r>
       <r>   -6.8099    1.0000 </r>
       <r>   -6.5542    1.0000 </r>
       <r>   -5.9639    1.0000 </r>
       <r>   -5.6062    1.0000 </r>
       <r>    1.2577    1.0000 </r>
       <r>    2.1605    1.0000 </r>
       <r>    3.0570    1.0000 </r>
       <r>    3.0571    1.0000 </r>
       <r>    3.1623    1.0000 </r>
       <r>    3.7723    1.0000 </r>
       <r>    4.1422    1.0000 </r>
       <r>    4.2886    1.0000 </r>
       <r>    4.7858    1.0000 </r>
       <r>    4.8254    1.0000 </r>
       <r>    5.5417    1.0000 </r>
       <r>    6.1318    1.0000 </r>
       <r>    6.1389    1.0000 </r>
       <r>    6.2610    1.0000 </r>
       <r>    8.6005    0.0000 </r>
       <r>    9.1469    0.0000 </r>
       <r>    9.2444    0.0000 </r>
       <r>    9.2584    0.0000 </r>
       <r>    9.5656    0.0000 </r>
       <r>    9.6869    0.0000 </r>
       <r>   10.4532    0.0000 </r>
       <r>   10.7002    0.0000 </r>
       <r>   15.1188    0.0000 </r>
       <r>   15.4760    0.0000 </r>
       <r>   16.1907    0.0000 </r>
       <r>   16.2078    0.0000 </r>
       <r>   16.4286    0.0000 </r>
       <r>   16.7626    0.0000 </r>
       <r>   16.8962    0.0000 </r>
       <r>   17.2822    0.0000 </r>
       <r>   18.1201    0.0000 </r>
       <r>   18.4519    0.0000 </r>
       <r>   18.6639    0.0000 </r>
       <r>   19.0944    0.0000 </r>
       <r>   19.5380    0.0000 </r>
       <r>   19.9063    0.0000 </r>
       <r>   20.1469    0.0000 </r>
       <r>   20.3014    0.0000 </r>
       <r>   20.4337    0.0000 </r>
       <r>   21.1555    0.0000 </r>
       <r>   21.8021    0.0000 </r>
       <r>   21.9581    0.0000 </r>
       <r>   22.6793    0.0000 </r>
       <r>   23.5333    0.0000 </r>
       <r>   23.8207    0.0000 </r>
       <r>   24.1825    0.0000 </r>
       <r>   25.1578    0.0000 </r>
       <r>   26.7661    0.0000 </r>
       <r>   27.4282    0.0000 </r>
       <r>   27.8834    0.0000 </r>
       <r>   28.2503    0.0000 </r>
       <r>   28.8377    0.0000 </r>
       <r>   28.9058    0.0000 </r>
      </set>
      <set comment="kpoint 10">
       <r>  -54.0477    1.0000 </r>
       <r>  -54.0477    1.0000 </r>
       <r>  -28.2449    1.0000 </r>
       <r>  -28.2449    1.0000 </r>
       <r>  -28.1651    1.0000 </r>
       <r>  -28.1650    1.0000 </r>
       <r>  -28.0649    1.0000 </r>
       <r>  -28.0648    1.0000 </r>
       <r>   -6.3265    1.0000 </r>
       <r>   -6.0982    1.0000 </r>
       <r>   -5.7316    1.0000 </r>
       <r>   -5.4461    1.0000 </r>
       <r>    1.4096    1.0000 </r>
       <r>    1.9386    1.0000 </r>
       <r>    2.5788    1.0000 </r>
       <r>    2.6956    1.0000 </r>
       <r>    2.9850    1.0000 </r>
       <r>    3.1568    1.0000 </r>
       <r>    3.7127    1.0000 </r>
       <r>    3.9505    1.0000 </r>
       <r>    5.0090    1.0000 </r>
       <r>    5.0648    1.0000 </r>
       <r>    5.3011    1.0000 </r>
       <r>    5.6681    1.0000 </r>
       <r>    5.8628    1.0000 </r>
       <r>    5.9700    1.0000 </r>
       <r>    8.5004    0.0000 </r>
       <r>    9.0997    0.0000 </r>
       <r>    9.1155    0.0000 </r>
       <r>    9.5428    0.0000 </r>
       <r>    9.5732    0.0000 </r>
       <r>   10.1723    0.0000 </r>
       <r>   10.7334    0.0000 </r>
       <r>   11.1624    0.0000 </r>
       <r>   14.8440    0.0000 </r>
       <r>   15.2279    0.0000 </r>
       <r>   15.4204    0.0000 </r>
       <r>   15.6608    0.0000 </r>
       <r>   15.7401    0.0000 </r>
       <r>   16.5231    0.0000 </r>
       <r>   17.3002    0.0000 </r>
       <r>   17.5405    0.0000 </r>
       <r>   18.3495    0.0000 </r>
       <r>   18.4898    0.0000 </r>
       <r>   18.8394    0.0000 </r>
       <r>   19.5485    0.0000 </r>
       <r>   19.6105    0.0000 </r>
       <r>   19.7649    0.0000 </r>
       <r>   20.5284    0.0000 </r>
       <r>   20.6039    0.0000 </r>
       <r>   20.6604    0.0000 </r>
       <r>   21.9199    0.0000 </r>
       <r>   22.2012    0.0000 </r>
       <r>   22.5130    0.0000 </r>
       <r>   22.6051    0.0000 </r>
       <r>   23.4017    0.0000 </r>
       <r>   24.6971    0.0000 </r>
       <r>   24.7554    0.0000 </r>
       <r>   26.0470    0.0000 </r>
       <r>   27.0262    0.0000 </r>
       <r>   27.3993    0.0000 </r>
       <r>   27.8935    0.0000 </r>
       <r>   28.1444    0.0000 </r>
       <r>   28.5328    0.0000 </r>
       <r>   28.7364    0.0000 </r>
      </set>
      <set comment="kpoint 11">
       <r>  -54.0392    1.0000 </r>
       <r>  -54.0391    1.0000 </r>
       <r>  -28.3238    1.0000 </r>
       <r>  -28.3238    1.0000 </r>
       <r>  -28.1481    1.0000 </r>
       <r>  -28.1480    1.0000 </r>
       <r>  -28.0878    1.0000 </r>
       <r>  -28.0877    1.0000 </r>
       <r>   -5.8407    1.0000 </r>
       <r>   -5.6619    1.0000 </r>
       <r>   -5.4988    1.0000 </r>
       <r>   -5.3021    1.0000 </r>
       <r>    1.1877    1.0000 </r>
       <r>    1.5149    1.0000 </r>
       <r>    2.0960    1.0000 </r>
       <r>    2.3211    1.0000 </r>
       <r>    2.5379    1.0000 </r>
       <r>    3.1708    1.0000 </r>
       <r>    3.5360    1.0000 </r>
       <r>    3.7509    1.0000 </r>
       <r>    4.9687    1.0000 </r>
       <r>    5.0697    1.0000 </r>
       <r>    5.2092    1.0000 </r>
       <r>    5.2755    1.0000 </r>
       <r>    5.9858    1.0000 </r>
       <r>    6.0853    1.0000 </r>
       <r>    8.7352    0.0000 </r>
       <r>    9.1178    0.0000 </r>
       <r>    9.2917    0.0000 </r>
       <r>    9.5883    0.0000 </r>
       <r>    9.9489    0.0000 </r>
       <r>   10.6652    0.0000 </r>
       <r>   10.7827    0.0000 </r>
       <r>   11.4046    0.0000 </r>
       <r>   13.7137    0.0000 </r>
       <r>   14.4589    0.0000 </r>
       <r>   15.0534    0.0000 </r>
       <r>   15.0939    0.0000 </r>
       <r>   15.2303    0.0000 </r>
       <r>   16.5313    0.0000 </r>
       <r>   16.9088    0.0000 </r>
       <r>   17.0715    0.0000 </r>
       <r>   17.9528    0.0000 </r>
       <r>   18.0724    0.0000 </r>
       <r>   18.8096    0.0000 </r>
       <r>   19.1370    0.0000 </r>
       <r>   20.5224    0.0000 </r>
       <r>   20.6509    0.0000 </r>
       <r>   21.3937    0.0000 </r>
       <r>   21.4206    0.0000 </r>
       <r>   21.6178    0.0000 </r>
       <r>   22.6624    0.0000 </r>
       <r>   22.6646    0.0000 </r>
       <r>   23.5987    0.0000 </r>
       <r>   23.6962    0.0000 </r>
       <r>   23.9407    0.0000 </r>
       <r>   25.1556    0.0000 </r>
       <r>   25.7413    0.0000 </r>
       <r>   25.8262    0.0000 </r>
       <r>   26.6005    0.0000 </r>
       <r>   27.1738    0.0000 </r>
       <r>   27.8723    0.0000 </r>
       <r>   27.9063    0.0000 </r>
       <r>   28.2106    0.0000 </r>
       <r>   29.1154    0.0000 </r>
      </set>
      <set comment="kpoint 12">
       <r>  -54.0342    1.0000 </r>
       <r>  -54.0342    1.0000 </r>
       <r>  -28.3689    1.0000 </r>
       <r>  -28.3689    1.0000 </r>
       <r>  -28.1382    1.0000 </r>
       <r>  -28.1382    1.0000 </r>
       <r>  -28.1010    1.0000 </r>
       <r>  -28.1009    1.0000 </r>
       <r>   -5.5112    1.0000 </r>
       <r>   -5.3938    1.0000 </r>
       <r>   -5.3376    1.0000 </r>
       <r>   -5.2261    1.0000 </r>
       <r>    0.9395    1.0000 </r>
       <r>    1.2409    1.0000 </r>
       <r>    1.7964    1.0000 </r>
       <r>    1.9409    1.0000 </r>
       <r>    2.3978    1.0000 </r>
       <r>    3.0407    1.0000 </r>
       <r>    3.5232    1.0000 </r>
       <r>    3.6454    1.0000 </r>
       <r>    4.7299    1.0000 </r>
       <r>    5.0685    1.0000 </r>
       <r>    5.1619    1.0000 </r>
       <r>    5.3763    1.0000 </r>
       <r>    6.1871    1.0000 </r>
       <r>    6.3419    1.0000 </r>
       <r>    9.0142    0.0000 </r>
       <r>    9.1310    0.0000 </r>
       <r>    9.4352    0.0000 </r>
       <r>    9.7389    0.0000 </r>
       <r>   10.3135    0.0000 </r>
       <r>   10.6120    0.0000 </r>
       <r>   11.0309    0.0000 </r>
       <r>   11.3978    0.0000 </r>
       <r>   13.0124    0.0000 </r>
       <r>   13.3903    0.0000 </r>
       <r>   14.8067    0.0000 </r>
       <r>   15.3136    0.0000 </r>
       <r>   15.5316    0.0000 </r>
       <r>   16.0417    0.0000 </r>
       <r>   16.2145    0.0000 </r>
       <r>   16.5638    0.0000 </r>
       <r>   17.5207    0.0000 </r>
       <r>   18.1320    0.0000 </r>
       <r>   18.1575    0.0000 </r>
       <r>   19.0946    0.0000 </r>
       <r>   20.8276    0.0000 </r>
       <r>   21.6302    0.0000 </r>
       <r>   21.7724    0.0000 </r>
       <r>   21.9587    0.0000 </r>
       <r>   22.7838    0.0000 </r>
       <r>   23.4501    0.0000 </r>
       <r>   23.7507    0.0000 </r>
       <r>   24.2554    0.0000 </r>
       <r>   24.3168    0.0000 </r>
       <r>   25.0021    0.0000 </r>
       <r>   25.0146    0.0000 </r>
       <r>   25.9609    0.0000 </r>
       <r>   26.0723    0.0000 </r>
       <r>   26.9193    0.0000 </r>
       <r>   26.9835    0.0000 </r>
       <r>   27.4841    0.0000 </r>
       <r>   27.9841    0.0000 </r>
       <r>   28.1520    0.0000 </r>
       <r>   29.0150    0.0000 </r>
      </set>
      <set comment="kpoint 13">
       <r>  -54.0490    1.0000 </r>
       <r>  -54.0490    1.0000 </r>
       <r>  -28.2226    1.0000 </r>
       <r>  -28.2226    1.0000 </r>
       <r>  -28.1677    1.0000 </r>
       <r>  -28.1677    1.0000 </r>
       <r>  -28.0716    1.0000 </r>
       <r>  -28.0715    1.0000 </r>
       <r>   -6.3970    1.0000 </r>
       <r>   -6.1631    1.0000 </r>
       <r>   -5.7637    1.0000 </r>
       <r>   -5.4656    1.0000 </r>
       <r>    1.4649    1.0000 </r>
       <r>    2.0734    1.0000 </r>
       <r>    2.8102    1.0000 </r>
       <r>    2.8614    1.0000 </r>
       <r>    3.0871    1.0000 </r>
       <r>    3.1863    1.0000 </r>
       <r>    3.3394    1.0000 </r>
       <r>    3.8689    1.0000 </r>
       <r>    4.8092    1.0000 </r>
       <r>    4.8259    1.0000 </r>
       <r>    5.6440    1.0000 </r>
       <r>    5.8423    1.0000 </r>
       <r>    5.9637    1.0000 </r>
       <r>    5.9928    1.0000 </r>
       <r>    8.3381    0.0000 </r>
       <r>    9.0774    0.0000 </r>
       <r>    9.1664    0.0000 </r>
       <r>    9.2612    0.0000 </r>
       <r>    9.6197    0.0000 </r>
       <r>    9.8483    0.0000 </r>
       <r>   10.7925    0.0000 </r>
       <r>   11.2590    0.0000 </r>
       <r>   15.5074    0.0000 </r>
       <r>   15.5117    0.0000 </r>
       <r>   16.0530    0.0000 </r>
       <r>   16.0955    0.0000 </r>
       <r>   16.4389    0.0000 </r>
       <r>   16.8043    0.0000 </r>
       <r>   16.9498    0.0000 </r>
       <r>   16.9511    0.0000 </r>
       <r>   17.9638    0.0000 </r>
       <r>   18.3832    0.0000 </r>
       <r>   18.4374    0.0000 </r>
       <r>   19.0961    0.0000 </r>
       <r>   19.3607    0.0000 </r>
       <r>   19.4889    0.0000 </r>
       <r>   19.8972    0.0000 </r>
       <r>   20.0973    0.0000 </r>
       <r>   20.4919    0.0000 </r>
       <r>   22.1018    0.0000 </r>
       <r>   22.4678    0.0000 </r>
       <r>   22.6664    0.0000 </r>
       <r>   22.7693    0.0000 </r>
       <r>   23.8398    0.0000 </r>
       <r>   24.2909    0.0000 </r>
       <r>   24.8118    0.0000 </r>
       <r>   26.6630    0.0000 </r>
       <r>   26.8399    0.0000 </r>
       <r>   27.8206    0.0000 </r>
       <r>   28.1595    0.0000 </r>
       <r>   28.3412    0.0000 </r>
       <r>   28.3671    0.0000 </r>
       <r>   28.7149    0.0000 </r>
      </set>
      <set comment="kpoint 14">
       <r>  -54.0405    1.0000 </r>
       <r>  -54.0404    1.0000 </r>
       <r>  -28.2884    1.0000 </r>
       <r>  -28.2883    1.0000 </r>
       <r>  -28.1507    1.0000 </r>
       <r>  -28.1507    1.0000 </r>
       <r>  -28.1083    1.0000 </r>
       <r>  -28.1083    1.0000 </r>
       <r>   -5.9295    1.0000 </r>
       <r>   -5.7367    1.0000 </r>
       <r>   -5.5354    1.0000 </r>
       <r>   -5.3149    1.0000 </r>
       <r>    1.4241    1.0000 </r>
       <r>    1.7708    1.0000 </r>
       <r>    2.2945    1.0000 </r>
       <r>    2.4208    1.0000 </r>
       <r>    2.8327    1.0000 </r>
       <r>    3.1191    1.0000 </r>
       <r>    3.2257    1.0000 </r>
       <r>    3.7508    1.0000 </r>
       <r>    4.4760    1.0000 </r>
       <r>    4.5971    1.0000 </r>
       <r>    5.3336    1.0000 </r>
       <r>    5.4986    1.0000 </r>
       <r>    6.0238    1.0000 </r>
       <r>    6.0463    1.0000 </r>
       <r>    8.4634    0.0000 </r>
       <r>    9.2575    0.0000 </r>
       <r>    9.3560    0.0000 </r>
       <r>    9.4903    0.0000 </r>
       <r>    9.5362    0.0000 </r>
       <r>   10.1920    0.0000 </r>
       <r>   10.9226    0.0000 </r>
       <r>   11.5950    0.0000 </r>
       <r>   14.5134    0.0000 </r>
       <r>   15.1369    0.0000 </r>
       <r>   15.4576    0.0000 </r>
       <r>   15.7427    0.0000 </r>
       <r>   16.1617    0.0000 </r>
       <r>   16.8699    0.0000 </r>
       <r>   17.0112    0.0000 </r>
       <r>   17.3787    0.0000 </r>
       <r>   17.6336    0.0000 </r>
       <r>   18.4000    0.0000 </r>
       <r>   18.6791    0.0000 </r>
       <r>   18.8521    0.0000 </r>
       <r>   19.3746    0.0000 </r>
       <r>   19.6623    0.0000 </r>
       <r>   20.2604    0.0000 </r>
       <r>   20.2981    0.0000 </r>
       <r>   20.8129    0.0000 </r>
       <r>   22.3550    0.0000 </r>
       <r>   23.2216    0.0000 </r>
       <r>   23.3336    0.0000 </r>
       <r>   23.6232    0.0000 </r>
       <r>   24.2782    0.0000 </r>
       <r>   25.0694    0.0000 </r>
       <r>   25.7719    0.0000 </r>
       <r>   26.3365    0.0000 </r>
       <r>   27.7511    0.0000 </r>
       <r>   27.7657    0.0000 </r>
       <r>   28.1976    0.0000 </r>
       <r>   28.3267    0.0000 </r>
       <r>   28.3985    0.0000 </r>
       <r>   28.6332    0.0000 </r>
      </set>
      <set comment="kpoint 15">
       <r>  -54.0342    1.0000 </r>
       <r>  -54.0341    1.0000 </r>
       <r>  -28.3348    1.0000 </r>
       <r>  -28.3348    1.0000 </r>
       <r>  -28.1383    1.0000 </r>
       <r>  -28.1382    1.0000 </r>
       <r>  -28.1364    1.0000 </r>
       <r>  -28.1364    1.0000 </r>
       <r>   -5.5323    1.0000 </r>
       <r>   -5.4018    1.0000 </r>
       <r>   -5.3376    1.0000 </r>
       <r>   -5.2040    1.0000 </r>
       <r>    1.2724    1.0000 </r>
       <r>    1.5455    1.0000 </r>
       <r>    1.8030    1.0000 </r>
       <r>    1.8612    1.0000 </r>
       <r>    2.6440    1.0000 </r>
       <r>    3.1782    1.0000 </r>
       <r>    3.2481    1.0000 </r>
       <r>    3.7516    1.0000 </r>
       <r>    4.2608    1.0000 </r>
       <r>    4.5365    1.0000 </r>
       <r>    4.8575    1.0000 </r>
       <r>    5.2307    1.0000 </r>
       <r>    6.2179    1.0000 </r>
       <r>    6.3471    1.0000 </r>
       <r>    8.7961    0.0000 </r>
       <r>    9.2042    0.0000 </r>
       <r>    9.5203    0.0000 </r>
       <r>    9.7494    0.0000 </r>
       <r>    9.7791    0.0000 </r>
       <r>   10.5072    0.0000 </r>
       <r>   10.9173    0.0000 </r>
       <r>   11.6794    0.0000 </r>
       <r>   13.5696    0.0000 </r>
       <r>   14.1682    0.0000 </r>
       <r>   15.2191    0.0000 </r>
       <r>   15.6385    0.0000 </r>
       <r>   16.0834    0.0000 </r>
       <r>   16.8343    0.0000 </r>
       <r>   16.9871    0.0000 </r>
       <r>   16.9877    0.0000 </r>
       <r>   17.4202    0.0000 </r>
       <r>   17.8485    0.0000 </r>
       <r>   18.2240    0.0000 </r>
       <r>   19.1156    0.0000 </r>
       <r>   20.0040    0.0000 </r>
       <r>   20.5645    0.0000 </r>
       <r>   20.7247    0.0000 </r>
       <r>   21.4222    0.0000 </r>
       <r>   21.4935    0.0000 </r>
       <r>   22.3115    0.0000 </r>
       <r>   23.5558    0.0000 </r>
       <r>   23.8605    0.0000 </r>
       <r>   24.1539    0.0000 </r>
       <r>   24.8435    0.0000 </r>
       <r>   25.1474    0.0000 </r>
       <r>   25.7490    0.0000 </r>
       <r>   27.3877    0.0000 </r>
       <r>   27.5002    0.0000 </r>
       <r>   27.7879    0.0000 </r>
       <r>   28.0367    0.0000 </r>
       <r>   28.0979    0.0000 </r>
       <r>   28.2818    0.0000 </r>
       <r>   29.1847    0.0000 </r>
      </set>
      <set comment="kpoint 16">
       <r>  -54.0319    1.0000 </r>
       <r>  -54.0318    1.0000 </r>
       <r>  -28.3515    1.0000 </r>
       <r>  -28.3515    1.0000 </r>
       <r>  -28.1469    1.0000 </r>
       <r>  -28.1468    1.0000 </r>
       <r>  -28.1337    1.0000 </r>
       <r>  -28.1337    1.0000 </r>
       <r>   -5.3652    1.0000 </r>
       <r>   -5.2795    1.0000 </r>
       <r>   -5.2495    1.0000 </r>
       <r>   -5.1711    1.0000 </r>
       <r>    1.2033    1.0000 </r>
       <r>    1.4710    1.0000 </r>
       <r>    1.6201    1.0000 </r>
       <r>    1.6581    1.0000 </r>
       <r>    2.5058    1.0000 </r>
       <r>    3.0691    1.0000 </r>
       <r>    3.3755    1.0000 </r>
       <r>    3.7435    1.0000 </r>
       <r>    4.2526    1.0000 </r>
       <r>    4.5471    1.0000 </r>
       <r>    4.6499    1.0000 </r>
       <r>    5.0982    1.0000 </r>
       <r>    6.3648    1.0000 </r>
       <r>    6.5470    1.0000 </r>
       <r>    8.9005    0.0000 </r>
       <r>    9.0126    0.0000 </r>
       <r>    9.7543    0.0000 </r>
       <r>    9.8633    0.0000 </r>
       <r>    9.9157    0.0000 </r>
       <r>   10.5980    0.0000 </r>
       <r>   10.9358    0.0000 </r>
       <r>   11.6561    0.0000 </r>
       <r>   13.3202    0.0000 </r>
       <r>   13.5280    0.0000 </r>
       <r>   15.1949    0.0000 </r>
       <r>   15.7199    0.0000 </r>
       <r>   16.2407    0.0000 </r>
       <r>   16.5909    0.0000 </r>
       <r>   16.7721    0.0000 </r>
       <r>   16.9776    0.0000 </r>
       <r>   17.3547    0.0000 </r>
       <r>   17.7086    0.0000 </r>
       <r>   17.9369    0.0000 </r>
       <r>   19.1510    0.0000 </r>
       <r>   19.7723    0.0000 </r>
       <r>   21.0398    0.0000 </r>
       <r>   21.4572    0.0000 </r>
       <r>   21.7720    0.0000 </r>
       <r>   22.1817    0.0000 </r>
       <r>   22.6273    0.0000 </r>
       <r>   23.8625    0.0000 </r>
       <r>   24.0175    0.0000 </r>
       <r>   24.1172    0.0000 </r>
       <r>   24.3691    0.0000 </r>
       <r>   25.4710    0.0000 </r>
       <r>   25.8964    0.0000 </r>
       <r>   26.7240    0.0000 </r>
       <r>   27.3811    0.0000 </r>
       <r>   27.3981    0.0000 </r>
       <r>   27.7920    0.0000 </r>
       <r>   27.9071    0.0000 </r>
       <r>   28.5936    0.0000 </r>
       <r>   29.5182    0.0000 </r>
      </set>
      <set comment="kpoint 17">
       <r>  -54.0342    1.0000 </r>
       <r>  -54.0342    1.0000 </r>
       <r>  -28.3120    1.0000 </r>
       <r>  -28.3120    1.0000 </r>
       <r>  -28.1598    1.0000 </r>
       <r>  -28.1598    1.0000 </r>
       <r>  -28.1383    1.0000 </r>
       <r>  -28.1383    1.0000 </r>
       <r>   -5.5425    1.0000 </r>
       <r>   -5.4060    1.0000 </r>
       <r>   -5.3370    1.0000 </r>
       <r>   -5.1935    1.0000 </r>
       <r>    1.4707    1.0000 </r>
       <r>    1.7226    1.0000 </r>
       <r>    1.7539    1.0000 </r>
       <r>    1.8894    1.0000 </r>
       <r>    3.1018    1.0000 </r>
       <r>    3.1066    1.0000 </r>
       <r>    3.1221    1.0000 </r>
       <r>    3.7516    1.0000 </r>
       <r>    3.7946    1.0000 </r>
       <r>    4.0028    1.0000 </r>
       <r>    4.9408    1.0000 </r>
       <r>    5.3084    1.0000 </r>
       <r>    6.2149    1.0000 </r>
       <r>    6.3100    1.0000 </r>
       <r>    8.6895    0.0000 </r>
       <r>    9.2115    0.0000 </r>
       <r>    9.4702    0.0000 </r>
       <r>    9.5718    0.0000 </r>
       <r>    9.8085    0.0000 </r>
       <r>   10.2994    0.0000 </r>
       <r>   11.0966    0.0000 </r>
       <r>   11.7964    0.0000 </r>
       <r>   14.2171    0.0000 </r>
       <r>   14.2662    0.0000 </r>
       <r>   15.0335    0.0000 </r>
       <r>   16.2856    0.0000 </r>
       <r>   16.3238    0.0000 </r>
       <r>   16.4430    0.0000 </r>
       <r>   17.0765    0.0000 </r>
       <r>   17.4458    0.0000 </r>
       <r>   18.3636    0.0000 </r>
       <r>   18.4666    0.0000 </r>
       <r>   18.5956    0.0000 </r>
       <r>   19.0339    0.0000 </r>
       <r>   19.4646    0.0000 </r>
       <r>   19.9502    0.0000 </r>
       <r>   19.9504    0.0000 </r>
       <r>   20.2324    0.0000 </r>
       <r>   20.2625    0.0000 </r>
       <r>   22.7007    0.0000 </r>
       <r>   23.2357    0.0000 </r>
       <r>   23.3821    0.0000 </r>
       <r>   24.5378    0.0000 </r>
       <r>   24.7713    0.0000 </r>
       <r>   24.8713    0.0000 </r>
       <r>   26.3879    0.0000 </r>
       <r>   27.5459    0.0000 </r>
       <r>   27.7559    0.0000 </r>
       <r>   27.9502    0.0000 </r>
       <r>   28.2838    0.0000 </r>
       <r>   28.3795    0.0000 </r>
       <r>   28.8675    0.0000 </r>
       <r>   29.5305    0.0000 </r>
      </set>
      <set comment="kpoint 18">
       <r>  -54.0305    1.0000 </r>
       <r>  -54.0305    1.0000 </r>
       <r>  -28.3168    1.0000 </r>
       <r>  -28.3167    1.0000 </r>
       <r>  -28.1985    1.0000 </r>
       <r>  -28.1984    1.0000 </r>
       <r>  -28.1311    1.0000 </r>
       <r>  -28.1310    1.0000 </r>
       <r>   -5.2858    1.0000 </r>
       <r>   -5.2171    1.0000 </r>
       <r>   -5.1966    1.0000 </r>
       <r>   -5.1298    1.0000 </r>
       <r>    1.4056    1.0000 </r>
       <r>    1.5459    1.0000 </r>
       <r>    1.6201    1.0000 </r>
       <r>    1.8118    1.0000 </r>
       <r>    2.7636    1.0000 </r>
       <r>    3.0918    1.0000 </r>
       <r>    3.3583    1.0000 </r>
       <r>    3.3811    1.0000 </r>
       <r>    3.7111    1.0000 </r>
       <r>    3.8350    1.0000 </r>
       <r>    4.6375    1.0000 </r>
       <r>    5.0339    1.0000 </r>
       <r>    6.4927    1.0000 </r>
       <r>    6.6533    1.0000 </r>
       <r>    8.6808    0.0000 </r>
       <r>    8.7891    0.0000 </r>
       <r>    9.4337    0.0000 </r>
       <r>    9.9622    0.0000 </r>
       <r>   10.1731    0.0000 </r>
       <r>   10.3774    0.0000 </r>
       <r>   11.3005    0.0000 </r>
       <r>   11.8189    0.0000 </r>
       <r>   13.5153    0.0000 </r>
       <r>   14.1064    0.0000 </r>
       <r>   14.6489    0.0000 </r>
       <r>   15.8437    0.0000 </r>
       <r>   16.3705    0.0000 </r>
       <r>   17.0918    0.0000 </r>
       <r>   17.4562    0.0000 </r>
       <r>   17.7764    0.0000 </r>
       <r>   18.1623    0.0000 </r>
       <r>   18.2619    0.0000 </r>
       <r>   18.4292    0.0000 </r>
       <r>   19.0007    0.0000 </r>
       <r>   19.4519    0.0000 </r>
       <r>   20.1903    0.0000 </r>
       <r>   20.3706    0.0000 </r>
       <r>   20.5566    0.0000 </r>
       <r>   21.1276    0.0000 </r>
       <r>   22.6887    0.0000 </r>
       <r>   23.1471    0.0000 </r>
       <r>   23.3780    0.0000 </r>
       <r>   23.7086    0.0000 </r>
       <r>   24.6875    0.0000 </r>
       <r>   25.4282    0.0000 </r>
       <r>   26.0966    0.0000 </r>
       <r>   26.2658    0.0000 </r>
       <r>   26.9646    0.0000 </r>
       <r>   27.5006    0.0000 </r>
       <r>   28.1668    0.0000 </r>
       <r>   28.4977    0.0000 </r>
       <r>   29.3512    0.0000 </r>
       <r>   30.4372    0.0000 </r>
      </set>
      <set comment="kpoint 19">
       <r>  -54.0291    1.0000 </r>
       <r>  -54.0291    1.0000 </r>
       <r>  -28.2876    1.0000 </r>
       <r>  -28.2876    1.0000 </r>
       <r>  -28.2437    1.0000 </r>
       <r>  -28.2437    1.0000 </r>
       <r>  -28.1284    1.0000 </r>
       <r>  -28.1284    1.0000 </r>
       <r>   -5.1712    1.0000 </r>
       <r>   -5.1711    1.0000 </r>
       <r>   -5.1206    1.0000 </r>
       <r>   -5.1205    1.0000 </r>
       <r>    1.2496    1.0000 </r>
       <r>    1.4146    1.0000 </r>
       <r>    2.0778    1.0000 </r>
       <r>    2.0779    1.0000 </r>
       <r>    2.5393    1.0000 </r>
       <r>    2.8050    1.0000 </r>
       <r>    3.2349    1.0000 </r>
       <r>    3.2349    1.0000 </r>
       <r>    3.6578    1.0000 </r>
       <r>    3.6579    1.0000 </r>
       <r>    4.7395    1.0000 </r>
       <r>    4.7395    1.0000 </r>
       <r>    6.6850    1.0000 </r>
       <r>    6.8474    1.0000 </r>
       <r>    8.5048    0.0000 </r>
       <r>    8.5048    0.0000 </r>
       <r>    9.2939    0.0000 </r>
       <r>   10.2907    0.0000 </r>
       <r>   10.2907    0.0000 </r>
       <r>   10.3209    0.0000 </r>
       <r>   11.6841    0.0000 </r>
       <r>   11.6841    0.0000 </r>
       <r>   13.2583    0.0000 </r>
       <r>   14.5397    0.0000 </r>
       <r>   14.5397    0.0000 </r>
       <r>   15.0635    0.0000 </r>
       <r>   17.0586    0.0000 </r>
       <r>   17.0586    0.0000 </r>
       <r>   18.0263    0.0000 </r>
       <r>   18.2455    0.0000 </r>
       <r>   18.2455    0.0000 </r>
       <r>   18.3767    0.0000 </r>
       <r>   18.6036    0.0000 </r>
       <r>   18.8923    0.0000 </r>
       <r>   19.9774    0.0000 </r>
       <r>   19.9774    0.0000 </r>
       <r>   20.3318    0.0000 </r>
       <r>   20.3319    0.0000 </r>
       <r>   20.5326    0.0000 </r>
       <r>   22.7040    0.0000 </r>
       <r>   22.9733    0.0000 </r>
       <r>   22.9734    0.0000 </r>
       <r>   23.0046    0.0000 </r>
       <r>   25.1806    0.0000 </r>
       <r>   25.1806    0.0000 </r>
       <r>   25.6670    0.0000 </r>
       <r>   25.6670    0.0000 </r>
       <r>   26.2414    0.0000 </r>
       <r>   27.8044    0.0000 </r>
       <r>   27.8044    0.0000 </r>
       <r>   29.4058    0.0000 </r>
       <r>   29.7306    0.0000 </r>
       <r>   31.1648    0.0000 </r>
      </set>
     </set>
    </set>
   </array>
  </eigenvalues>
  <separator name="orbital magnetization" >
   <v name="MAGDIPOLOUT">      0.00000000      0.00000000      0.00000000</v>
  </separator>
  <dos>
   <i name="efermi">      7.66385311 </i>
   <total>
    <array>
     <dimension dim="1">gridpoints</dimension>
     <dimension dim="2">spin</dimension>
     <field>energy</field>
     <field>total</field>
     <field>integrated</field>
     <set>
      <set comment="spin 1">
       <r>   -58.3357     0.0000     0.0000 </r>
       <r>   -58.3044     0.0000     0.0000 </r>
       <r>   -58.2731     0.0000     0.0000 </r>
       <r>   -58.2419     0.0000     0.0000 </r>
       <r>   -58.2106     0.0000     0.0000 </r>
       <r>   -58.1794     0.0000     0.0000 </r>
       <r>   -58.1481     0.0000     0.0000 </r>
       <r>   -58.1168     0.0000     0.0000 </r>
       <r>   -58.0856     0.0000     0.0000 </r>
       <r>   -58.0543     0.0000     0.0000 </r>
       <r>   -58.0230     0.0000     0.0000 </r>
       <r>   -57.9918     0.0000     0.0000 </r>
       <r>   -57.9605     0.0000     0.0000 </r>
       <r>   -57.9292     0.0000     0.0000 </r>
       <r>   -57.8980     0.0000     0.0000 </r>
       <r>   -57.8667     0.0000     0.0000 </r>
       <r>   -57.8354     0.0000     0.0000 </r>
       <r>   -57.8042     0.0000     0.0000 </r>
       <r>   -57.7729     0.0000     0.0000 </r>
       <r>   -57.7416     0.0000     0.0000 </r>
       <r>   -57.7104     0.0000     0.0000 </r>
       <r>   -57.6791     0.0000     0.0000 </r>
       <r>   -57.6479     0.0000     0.0000 </r>
       <r>   -57.6166     0.0000     0.0000 </r>
       <r>   -57.5853     0.0000     0.0000 </r>
       <r>   -57.5541     0.0000     0.0000 </r>
       <r>   -57.5228     0.0000     0.0000 </r>
       <r>   -57.4915     0.0000     0.0000 </r>
       <r>   -57.4603     0.0000     0.0000 </r>
       <r>   -57.4290     0.0000     0.0000 </r>
       <r>   -57.3977     0.0000     0.0000 </r>
       <r>   -57.3665     0.0000     0.0000 </r>
       <r>   -57.3352     0.0000     0.0000 </r>
       <r>   -57.3039     0.0000     0.0000 </r>
       <r>   -57.2727     0.0000     0.0000 </r>
       <r>   -57.2414     0.0000     0.0000 </r>
       <r>   -57.2102     0.0000     0.0000 </r>
       <r>   -57.1789     0.0000     0.0000 </r>
       <r>   -57.1476     0.0000     0.0000 </r>
       <r>   -57.1164     0.0000     0.0000 </r>
       <r>   -57.0851     0.0000     0.0000 </r>
       <r>   -57.0538     0.0000     0.0000 </r>
       <r>   -57.0226     0.0000     0.0000 </r>
       <r>   -56.9913     0.0000     0.0000 </r>
       <r>   -56.9600     0.0000     0.0000 </r>
       <r>   -56.9288     0.0000     0.0000 </r>
       <r>   -56.8975     0.0000     0.0000 </r>
       <r>   -56.8662     0.0000     0.0000 </r>
       <r>   -56.8350     0.0000     0.0000 </r>
       <r>   -56.8037     0.0000     0.0000 </r>
       <r>   -56.7724     0.0000     0.0000 </r>
       <r>   -56.7412     0.0000     0.0000 </r>
       <r>   -56.7099     0.0000     0.0000 </r>
       <r>   -56.6787     0.0000     0.0000 </r>
       <r>   -56.6474     0.0000     0.0000 </r>
       <r>   -56.6161     0.0000     0.0000 </r>
       <r>   -56.5849     0.0000     0.0000 </r>
       <r>   -56.5536     0.0000     0.0000 </r>
       <r>   -56.5223     0.0000     0.0000 </r>
       <r>   -56.4911     0.0000     0.0000 </r>
       <r>   -56.4598     0.0000     0.0000 </r>
       <r>   -56.4285     0.0000     0.0000 </r>
       <r>   -56.3973     0.0000     0.0000 </r>
       <r>   -56.3660     0.0000     0.0000 </r>
       <r>   -56.3347     0.0000     0.0000 </r>
       <r>   -56.3035     0.0000     0.0000 </r>
       <r>   -56.2722     0.0000     0.0000 </r>
       <r>   -56.2410     0.0000     0.0000 </r>
       <r>   -56.2097     0.0000     0.0000 </r>
       <r>   -56.1784     0.0000     0.0000 </r>
       <r>   -56.1472     0.0000     0.0000 </r>
       <r>   -56.1159     0.0000     0.0000 </r>
       <r>   -56.0846     0.0000     0.0000 </r>
       <r>   -56.0534     0.0000     0.0000 </r>
       <r>   -56.0221     0.0000     0.0000 </r>
       <r>   -55.9908     0.0000     0.0000 </r>
       <r>   -55.9596     0.0000     0.0000 </r>
       <r>   -55.9283     0.0000     0.0000 </r>
       <r>   -55.8970     0.0000     0.0000 </r>
       <r>   -55.8658     0.0000     0.0000 </r>
       <r>   -55.8345     0.0000     0.0000 </r>
       <r>   -55.8032     0.0000     0.0000 </r>
       <r>   -55.7720     0.0000     0.0000 </r>
       <r>   -55.7407     0.0000     0.0000 </r>
       <r>   -55.7095     0.0000     0.0000 </r>
       <r>   -55.6782     0.0000     0.0000 </r>
       <r>   -55.6469     0.0000     0.0000 </r>
       <r>   -55.6157     0.0000     0.0000 </r>
       <r>   -55.5844     0.0000     0.0000 </r>
       <r>   -55.5531     0.0000     0.0000 </r>
       <r>   -55.5219     0.0000     0.0000 </r>
       <r>   -55.4906     0.0000     0.0000 </r>
       <r>   -55.4593     0.0000     0.0000 </r>
       <r>   -55.4281     0.0000     0.0000 </r>
       <r>   -55.3968     0.0000     0.0000 </r>
       <r>   -55.3655     0.0000     0.0000 </r>
       <r>   -55.3343     0.0000     0.0000 </r>
       <r>   -55.3030     0.0000     0.0000 </r>
       <r>   -55.2717     0.0000     0.0000 </r>
       <r>   -55.2405     0.0000     0.0000 </r>
       <r>   -55.2092     0.0000     0.0000 </r>
       <r>   -55.1780     0.0000     0.0000 </r>
       <r>   -55.1467     0.0000     0.0000 </r>
       <r>   -55.1154     0.0000     0.0000 </r>
       <r>   -55.0842     0.0000     0.0000 </r>
       <r>   -55.0529     0.0000     0.0000 </r>
       <r>   -55.0216     0.0000     0.0000 </r>
       <r>   -54.9904     0.0000     0.0000 </r>
       <r>   -54.9591     0.0000     0.0000 </r>
       <r>   -54.9278     0.0000     0.0000 </r>
       <r>   -54.8966     0.0000     0.0000 </r>
       <r>   -54.8653     0.0000     0.0000 </r>
       <r>   -54.8340     0.0000     0.0000 </r>
       <r>   -54.8028     0.0000     0.0000 </r>
       <r>   -54.7715     0.0000     0.0000 </r>
       <r>   -54.7403     0.0000     0.0000 </r>
       <r>   -54.7090     0.0000     0.0000 </r>
       <r>   -54.6777     0.0000     0.0000 </r>
       <r>   -54.6465     0.0000     0.0000 </r>
       <r>   -54.6152     0.0000     0.0000 </r>
       <r>   -54.5839     0.0000     0.0000 </r>
       <r>   -54.5527     0.0000     0.0000 </r>
       <r>   -54.5214     0.0000     0.0000 </r>
       <r>   -54.4901     0.0000     0.0000 </r>
       <r>   -54.4589     0.0000     0.0000 </r>
       <r>   -54.4276     0.0000     0.0000 </r>
[...]
       <r>    23.6712     4.2893   109.2386 </r>
       <r>    23.7025     5.0818   109.3975 </r>
       <r>    23.7338     5.7881   109.5784 </r>
       <r>    23.7650     5.0835   109.7374 </r>
       <r>    23.7963     4.6695   109.8834 </r>
       <r>    23.8276     5.6093   110.0587 </r>
       <r>    23.8588     6.3572   110.2575 </r>
       <r>    23.8901     5.4117   110.4267 </r>
       <r>    23.9214     4.4139   110.5647 </r>
       <r>    23.9526     4.1433   110.6942 </r>
       <r>    23.9839     3.2145   110.7947 </r>
       <r>    24.0152     2.3938   110.8695 </r>
       <r>    24.0464     2.2000   110.9383 </r>
       <r>    24.0777     2.4543   111.0151 </r>
       <r>    24.1089     4.0594   111.1420 </r>
       <r>    24.1402     6.0078   111.3298 </r>
       <r>    24.1715     6.4084   111.5302 </r>
       <r>    24.2027     5.3781   111.6983 </r>
       <r>    24.2340     4.5103   111.8393 </r>
       <r>    24.2653     5.1698   112.0010 </r>
       <r>    24.2965     5.8414   112.1836 </r>
       <r>    24.3278     4.8053   112.3338 </r>
       <r>    24.3591     3.1137   112.4312 </r>
       <r>    24.3903     2.1159   112.4973 </r>
       <r>    24.4216     1.5817   112.5468 </r>
       <r>    24.4529     1.0681   112.5802 </r>
       <r>    24.4841     1.0176   112.6120 </r>
       <r>    24.5154     1.4856   112.6584 </r>
       <r>    24.5466     1.6036   112.7086 </r>
       <r>    24.5779     1.1788   112.7454 </r>
       <r>    24.6092     1.1528   112.7815 </r>
       <r>    24.6404     2.1720   112.8494 </r>
       <r>    24.6717     3.9875   112.9740 </r>
       <r>    24.7030     5.4432   113.1442 </r>
       <r>    24.7342     5.4722   113.3153 </r>
       <r>    24.7655     4.7335   113.4633 </r>
       <r>    24.7968     3.9190   113.5858 </r>
       <r>    24.8280     3.5285   113.6961 </r>
       <r>    24.8593     3.3601   113.8012 </r>
       <r>    24.8906     2.3970   113.8761 </r>
       <r>    24.9218     1.1105   113.9108 </r>
       <r>    24.9531     0.8881   113.9386 </r>
       <r>    24.9844     2.5053   114.0169 </r>
       <r>    25.0156     5.0418   114.1746 </r>
       <r>    25.0469     5.9789   114.3615 </r>
       <r>    25.0781     4.9477   114.5162 </r>
       <r>    25.1094     4.1006   114.6444 </r>
       <r>    25.1407     5.1386   114.8050 </r>
       <r>    25.1719     6.0813   114.9952 </r>
       <r>    25.2032     4.1567   115.1251 </r>
       <r>    25.2345     1.4878   115.1716 </r>
       <r>    25.2657     0.3934   115.1839 </r>
       <r>    25.2970     0.6465   115.2041 </r>
       <r>    25.3283     1.6495   115.2557 </r>
       <r>    25.3595     2.4069   115.3310 </r>
       <r>    25.3908     2.3521   115.4045 </r>
       <r>    25.4221     2.4933   115.4825 </r>
       <r>    25.4533     3.0338   115.5773 </r>
       <r>    25.4846     3.0457   115.6725 </r>
       <r>    25.5159     2.3281   115.7453 </r>
       <r>    25.5471     1.6217   115.7960 </r>
       <r>    25.5784     1.5576   115.8447 </r>
       <r>    25.6096     1.6422   115.8961 </r>
       <r>    25.6409     1.4237   115.9406 </r>
       <r>    25.6722     1.2374   115.9793 </r>
       <r>    25.7034     1.8449   116.0369 </r>
       <r>    25.7347     3.9511   116.1605 </r>
       <r>    25.7660     6.1932   116.3541 </r>
       <r>    25.7972     6.1891   116.5476 </r>
       <r>    25.8285     4.4763   116.6875 </r>
       <r>    25.8598     2.8144   116.7755 </r>
       <r>    25.8910     2.2093   116.8446 </r>
       <r>    25.9223     2.8024   116.9322 </r>
       <r>    25.9536     3.6020   117.0448 </r>
       <r>    25.9848     3.4265   117.1520 </r>
       <r>    26.0161     2.8292   117.2404 </r>
       <r>    26.0473     3.5953   117.3528 </r>
       <r>    26.0786     4.7806   117.5023 </r>
       <r>    26.1099     4.1826   117.6331 </r>
       <r>    26.1411     2.2211   117.7025 </r>
       <r>    26.1724     0.9067   117.7308 </r>
       <r>    26.2037     0.8276   117.7567 </r>
       <r>    26.2349     1.4563   117.8023 </r>
       <r>    26.2662     2.2613   117.8729 </r>
       <r>    26.2975     2.6505   117.9558 </r>
       <r>    26.3287     3.0764   118.0520 </r>
       <r>    26.3600     3.5859   118.1641 </r>
       <r>    26.3913     3.0712   118.2601 </r>
       <r>    26.4225     1.7476   118.3148 </r>
       <r>    26.4538     0.9241   118.3437 </r>
       <r>    26.4851     1.2305   118.3821 </r>
       <r>    26.5163     1.7897   118.4381 </r>
       <r>    26.5476     1.6789   118.4906 </r>
       <r>    26.5788     1.6780   118.5430 </r>
       <r>    26.6101     2.2708   118.6140 </r>
       <r>    26.6414     2.6404   118.6966 </r>
       <r>    26.6726     2.5499   118.7763 </r>
       <r>    26.7039     2.2041   118.8452 </r>
       <r>    26.7352     2.2107   118.9143 </r>
       <r>    26.7664     2.4949   118.9923 </r>
       <r>    26.7977     2.1820   119.0606 </r>
       <r>    26.8290     1.5626   119.1094 </r>
       <r>    26.8602     1.3259   119.1509 </r>
       <r>    26.8915     1.6579   119.2027 </r>
       <r>    26.9228     3.0210   119.2971 </r>
       <r>    26.9540     5.1845   119.4592 </r>
       <r>    26.9853     6.6831   119.6682 </r>
       <r>    27.0165     6.2122   119.8624 </r>
       <r>    27.0478     4.6819   120.0088 </r>
       <r>    27.0791     3.1299   120.1066 </r>
       <r>    27.1103     2.1086   120.1726 </r>
       <r>    27.1416     1.9403   120.2332 </r>
       <r>    27.1729     2.2701   120.3042 </r>
       <r>    27.2041     2.2947   120.3759 </r>
       <r>    27.2354     1.7247   120.4299 </r>
       <r>    27.2667     0.9745   120.4603 </r>
       <r>    27.2979     0.5579   120.4778 </r>
       <r>    27.3292     1.3441   120.5198 </r>
       <r>    27.3605     4.1507   120.6496 </r>
       <r>    27.3917     7.7342   120.8914 </r>
       <r>    27.4230     8.8270   121.1673 </r>
       <r>    27.4543     7.7916   121.4109 </r>
       <r>    27.4855     7.9769   121.6603 </r>
       <r>    27.5168     7.9185   121.9079 </r>
       <r>    27.5480     5.1265   122.0682 </r>
       <r>    27.5793     2.0675   122.1328 </r>
       <r>    27.6106     0.6482   122.1531 </r>
       <r>    27.6418     0.5216   122.1694 </r>
       <r>    27.6731     0.9858   122.2002 </r>
       <r>    27.7044     1.7922   122.2562 </r>
       <r>    27.7356     4.0237   122.3820 </r>
       <r>    27.7669     7.3251   122.6111 </r>
       <r>    27.7982     8.2560   122.8692 </r>
       <r>    27.8294     6.5394   123.0736 </r>
       <r>    27.8607     6.2893   123.2703 </r>
       <r>    27.8920     8.4550   123.5346 </r>
       <r>    27.9232     8.8544   123.8114 </r>
       <r>    27.9545     6.8208   124.0247 </r>
       <r>    27.9858     5.7179   124.2034 </r>
       <r>    28.0170     5.5697   124.3776 </r>
       <r>    28.0483     5.0437   124.5353 </r>
       <r>    28.0795     4.4870   124.6756 </r>
       <r>    28.1108     4.8962   124.8286 </r>
       <r>    28.1421     6.7690   125.0403 </r>
       <r>    28.1733     8.7030   125.3124 </r>
       <r>    28.2046     8.8307   125.5884 </r>
       <r>    28.2359     7.7434   125.8305 </r>
       <r>    28.2671     6.7970   126.0430 </r>
       <r>    28.2984     6.2089   126.2372 </r>
       <r>    28.3297     5.8945   126.4214 </r>
       <r>    28.3609     6.2460   126.6167 </r>
       <r>    28.3922     6.6152   126.8235 </r>
       <r>    28.4235     5.6267   126.9995 </r>
       <r>    28.4547     3.5834   127.1115 </r>
       <r>    28.4860     2.7382   127.1971 </r>
       <r>    28.5172     3.2834   127.2998 </r>
       <r>    28.5485     3.3865   127.4056 </r>
       <r>    28.5798     3.2192   127.5063 </r>
       <r>    28.6110     3.9969   127.6312 </r>
       <r>    28.6423     4.5662   127.7740 </r>
       <r>    28.6736     3.8543   127.8945 </r>
       <r>    28.7048     3.3084   127.9979 </r>
       <r>    28.7361     3.4598   128.1061 </r>
       <r>    28.7674     3.1673   128.2051 </r>
       <r>    28.7986     2.5517   128.2849 </r>
       <r>    28.8299     2.6609   128.3681 </r>
       <r>    28.8612     3.2197   128.4688 </r>
       <r>    28.8924     3.3731   128.5742 </r>
       <r>    28.9237     2.9411   128.6662 </r>
       <r>    28.9550     2.0319   128.7297 </r>
       <r>    28.9862     1.5757   128.7790 </r>
       <r>    29.0175     1.8800   128.8378 </r>
       <r>    29.0487     1.7746   128.8932 </r>
       <r>    29.0800     1.4260   128.9378 </r>
       <r>    29.1113     1.8246   128.9949 </r>
       <r>    29.1425     2.2693   129.0658 </r>
       <r>    29.1738     2.3164   129.1382 </r>
       <r>    29.2051     2.0390   129.2020 </r>
       <r>    29.2363     1.1524   129.2380 </r>
       <r>    29.2676     0.3805   129.2499 </r>
       <r>    29.2989     0.3698   129.2615 </r>
       <r>    29.3301     1.1156   129.2963 </r>
       <r>    29.3614     1.9009   129.3558 </r>
       <r>    29.3927     1.7990   129.4120 </r>
       <r>    29.4239     1.3938   129.4556 </r>
       <r>    29.4552     1.3236   129.4970 </r>
       <r>    29.4864     1.4192   129.5414 </r>
       <r>    29.5177     1.7830   129.5971 </r>
       <r>    29.5490     1.7947   129.6532 </r>
       <r>    29.5802     1.0001   129.6845 </r>
       <r>    29.6115     0.2788   129.6932 </r>
       <r>    29.6428     0.0433   129.6945 </r>
       <r>    29.6740     0.0454   129.6960 </r>
       <r>    29.7053     0.1620   129.7010 </r>
       <r>    29.7366     0.2950   129.7103 </r>
       <r>    29.7678     0.2822   129.7191 </r>
       <r>    29.7991     0.2899   129.7281 </r>
       <r>    29.8304     0.6103   129.7472 </r>
       <r>    29.8616     0.9099   129.7757 </r>
       <r>    29.8929     0.6727   129.7967 </r>
       <r>    29.9242     0.2393   129.8042 </r>
       <r>    29.9554     0.0407   129.8054 </r>
       <r>    29.9867     0.0033   129.8056 </r>
       <r>    30.0179     0.0001   129.8056 </r>
       <r>    30.0492     0.0000   129.8056 </r>
       <r>    30.0805     0.0000   129.8056 </r>
       <r>    30.1117     0.0000   129.8056 </r>
       <r>    30.1430     0.0000   129.8056 </r>
       <r>    30.1743     0.0000   129.8056 </r>
       <r>    30.2055     0.0000   129.8056 </r>
       <r>    30.2368     0.0000   129.8056 </r>
       <r>    30.2681     0.0000   129.8056 </r>
       <r>    30.2993     0.0003   129.8056 </r>
       <r>    30.3306     0.0066   129.8058 </r>
       <r>    30.3619     0.0815   129.8083 </r>
       <r>    30.3931     0.4789   129.8233 </r>
       <r>    30.4244     1.3457   129.8654 </r>
       <r>    30.4556     1.8156   129.9221 </r>
       <r>    30.4869     1.1774   129.9589 </r>
       <r>    30.5182     0.3664   129.9704 </r>
       <r>    30.5494     0.0545   129.9721 </r>
       <r>    30.5807     0.0039   129.9722 </r>
       <r>    30.6120     0.0001   129.9722 </r>
       <r>    30.6432     0.0000   129.9722 </r>
       <r>    30.6745     0.0000   129.9722 </r>
       <r>    30.7058     0.0000   129.9722 </r>
       <r>    30.7370     0.0000   129.9722 </r>
       <r>    30.7683     0.0000   129.9722 </r>
       <r>    30.7996     0.0000   129.9722 </r>
       <r>    30.8308     0.0000   129.9722 </r>
       <r>    30.8621     0.0000   129.9722 </r>
       <r>    30.8934     0.0000   129.9722 </r>
       <r>    30.9246     0.0000   129.9722 </r>
       <r>    30.9559     0.0000   129.9722 </r>
       <r>    30.9871     0.0000   129.9722 </r>
       <r>    31.0184     0.0000   129.9722 </r>
       <r>    31.0497     0.0005   129.9722 </r>
       <r>    31.0809     0.0074   129.9725 </r>
       <r>    31.1122     0.0530   129.9741 </r>
       <r>    31.1435     0.1820   129.9798 </r>
       <r>    31.1747     0.2999   129.9892 </r>
       <r>    31.2060     0.2375   129.9966 </r>
       <r>    31.2373     0.0904   129.9994 </r>
       <r>    31.2685     0.0164   130.0000 </r>
       <r>    31.2998     0.0014   130.0000 </r>
       <r>    31.3311     0.0001   130.0000 </r>
       <r>    31.3623     0.0000   130.0000 </r>
       <r>    31.3936     0.0000   130.0000 </r>
       <r>    31.4249     0.0000   130.0000 </r>
       <r>    31.4561     0.0000   130.0000 </r>
       <r>    31.4874     0.0000   130.0000 </r>
       <r>    31.5186     0.0000   130.0000 </r>
       <r>    31.5499     0.0000   130.0000 </r>
       <r>    31.5812     0.0000   130.0000 </r>
       <r>    31.6124     0.0000   130.0000 </r>
       <r>    31.6437     0.0000   130.0000 </r>
       <r>    31.6750     0.0000   130.0000 </r>
       <r>    31.7062     0.0000   130.0000 </r>
       <r>    31.7375     0.0000   130.0000 </r>
       <r>    31.7688     0.0000   130.0000 </r>
       <r>    31.8000     0.0000   130.0000 </r>
       <r>    31.8313     0.0000   130.0000 </r>
       <r>    31.8626     0.0000   130.0000 </r>
       <r>    31.8938     0.0000   130.0000 </r>
       <r>    31.9251     0.0000   130.0000 </r>
       <r>    31.9563     0.0000   130.0000 </r>
       <r>    31.9876     0.0000   130.0000 </r>
       <r>    32.0189     0.0000   130.0000 </r>
       <r>    32.0501     0.0000   130.0000 </r>
       <r>    32.0814     0.0000   130.0000 </r>
       <r>    32.1127     0.0000   130.0000 </r>
       <r>    32.1439     0.0000   130.0000 </r>
       <r>    32.1752     0.0000   130.0000 </r>
       <r>    32.2065     0.0000   130.0000 </r>
       <r>    32.2377     0.0000   130.0000 </r>
       <r>    32.2690     0.0000   130.0000 </r>
       <r>    32.3003     0.0000   130.0000 </r>
       <r>    32.3315     0.0000   130.0000 </r>
       <r>    32.3628     0.0000   130.0000 </r>
       <r>    32.3941     0.0000   130.0000 </r>
       <r>    32.4253     0.0000   130.0000 </r>
       <r>    32.4566     0.0000   130.0000 </r>
       <r>    32.4878     0.0000   130.0000 </r>
       <r>    32.5191     0.0000   130.0000 </r>
       <r>    32.5504     0.0000   130.0000 </r>
       <r>    32.5816     0.0000   130.0000 </r>
       <r>    32.6129     0.0000   130.0000 </r>
       <r>    32.6442     0.0000   130.0000 </r>
       <r>    32.6754     0.0000   130.0000 </r>
       <r>    32.7067     0.0000   130.0000 </r>
       <r>    32.7380     0.0000   130.0000 </r>
       <r>    32.7692     0.0000   130.0000 </r>
       <r>    32.8005     0.0000   130.0000 </r>
       <r>    32.8318     0.0000   130.0000 </r>
       <r>    32.8630     0.0000   130.0000 </r>
       <r>    32.8943     0.0000   130.0000 </r>
       <r>    32.9255     0.0000   130.0000 </r>
       <r>    32.9568     0.0000   130.0000 </r>
       <r>    32.9881     0.0000   130.0000 </r>
       <r>    33.0193     0.0000   130.0000 </r>
       <r>    33.0506     0.0000   130.0000 </r>
       <r>    33.0819     0.0000   130.0000 </r>
       <r>    33.1131     0.0000   130.0000 </r>
       <r>    33.1444     0.0000   130.0000 </r>
       <r>    33.1757     0.0000   130.0000 </r>
       <r>    33.2069     0.0000   130.0000 </r>
       <r>    33.2382     0.0000   130.0000 </r>
       <r>    33.2695     0.0000   130.0000 </r>
       <r>    33.3007     0.0000   130.0000 </r>
       <r>    33.3320     0.0000   130.0000 </r>
       <r>    33.3633     0.0000   130.0000 </r>
       <r>    33.3945     0.0000   130.0000 </r>
       <r>    33.4258     0.0000   130.0000 </r>
       <r>    33.4570     0.0000   130.0000 </r>
       <r>    33.4883     0.0000   130.0000 </r>
       <r>    33.5196     0.0000   130.0000 </r>
       <r>    33.5508     0.0000   130.0000 </r>
       <r>    33.5821     0.0000   130.0000 </r>
       <r>    33.6134     0.0000   130.0000 </r>
       <r>    33.6446     0.0000   130.0000 </r>
       <r>    33.6759     0.0000   130.0000 </r>
       <r>    33.7072     0.0000   130.0000 </r>
       <r>    33.7384     0.0000   130.0000 </r>
       <r>    33.7697     0.0000   130.0000 </r>
       <r>    33.8010     0.0000   130.0000 </r>
       <r>    33.8322     0.0000   130.0000 </r>
       <r>    33.8635     0.0000   130.0000 </r>
       <r>    33.8948     0.0000   130.0000 </r>
       <r>    33.9260     0.0000   130.0000 </r>
       <r>    33.9573     0.0000   130.0000 </r>
       <r>    33.9885     0.0000   130.0000 </r>
       <r>    34.0198     0.0000   130.0000 </r>
       <r>    34.0511     0.0000   130.0000 </r>
       <r>    34.0823     0.0000   130.0000 </r>
       <r>    34.1136     0.0000   130.0000 </r>
       <r>    34.1449     0.0000   130.0000 </r>
       <r>    34.1761     0.0000   130.0000 </r>
       <r>    34.2074     0.0000   130.0000 </r>
       <r>    34.2387     0.0000   130.0000 </r>
       <r>    34.2699     0.0000   130.0000 </r>
       <r>    34.3012     0.0000   130.0000 </r>
       <r>    34.3325     0.0000   130.0000 </r>
       <r>    34.3637     0.0000   130.0000 </r>
       <r>    34.3950     0.0000   130.0000 </r>
       <r>    34.4262     0.0000   130.0000 </r>
       <r>    34.4575     0.0000   130.0000 </r>
       <r>    34.4888     0.0000   130.0000 </r>
       <r>    34.5200     0.0000   130.0000 </r>
       <r>    34.5513     0.0000   130.0000 </r>
       <r>    34.5826     0.0000   130.0000 </r>
       <r>    34.6138     0.0000   130.0000 </r>
       <r>    34.6451     0.0000   130.0000 </r>
       <r>    34.6764     0.0000   130.0000 </r>
       <r>    34.7076     0.0000   130.0000 </r>
       <r>    34.7389     0.0000   130.0000 </r>
       <r>    34.7702     0.0000   130.0000 </r>
       <r>    34.8014     0.0000   130.0000 </r>
       <r>    34.8327     0.0000   130.0000 </r>
       <r>    34.8640     0.0000   130.0000 </r>
       <r>    34.8952     0.0000   130.0000 </r>
       <r>    34.9265     0.0000   130.0000 </r>
       <r>    34.9577     0.0000   130.0000 </r>
       <r>    34.9890     0.0000   130.0000 </r>
       <r>    35.0203     0.0000   130.0000 </r>
       <r>    35.0515     0.0000   130.0000 </r>
       <r>    35.0828     0.0000   130.0000 </r>
       <r>    35.1141     0.0000   130.0000 </r>
       <r>    35.1453     0.0000   130.0000 </r>
       <r>    35.1766     0.0000   130.0000 </r>
       <r>    35.2079     0.0000   130.0000 </r>
       <r>    35.2391     0.0000   130.0000 </r>
       <r>    35.2704     0.0000   130.0000 </r>
       <r>    35.3017     0.0000   130.0000 </r>
       <r>    35.3329     0.0000   130.0000 </r>
       <r>    35.3642     0.0000   130.0000 </r>
       <r>    35.3954     0.0000   130.0000 </r>
       <r>    35.4267     0.0000   130.0000 </r>
      </set>
     </set>
    </array>
   </total>
  </dos>
 </calculation>
 <structure name="finalpos" >
  <crystal>
   <varray name="basis" >
    <v>       1.58449996      -2.74443443       0.00000000 </v>
    <v>       1.58449996       2.74443443       0.00000000 </v>
    <v>       0.00000000       0.00000000      12.32400036 </v>
   </varray>
   <i name="volume">    107.18321699 </i>
   <varray name="rec_basis" >
    <v>       0.31555697      -0.18218690       0.00000000 </v>
    <v>       0.31555697       0.18218690       0.00000000 </v>
    <v>       0.00000000       0.00000000       0.08114248 </v>
   </varray>
  </crystal>
  <varray name="positions" >
   <v>       0.33333333       0.66666667       0.25000000 </v>
   <v>       0.66666667       0.33333333       0.75000000 </v>
   <v>       0.33333333       0.66666667       0.62300003 </v>
   <v>       0.66666667       0.33333333       0.37699997 </v>
   <v>       0.66666667       0.33333333       0.12300002 </v>
   <v>       0.33333333       0.66666667       0.87700001 </v>
  </varray>
  <varray name="velocities" >
   <v>       0.00000000       0.00000000       0.00000000 </v>
   <v>       0.00000000       0.00000000       0.00000000 </v>
   <v>       0.00000000       0.00000000       0.00000000 </v>
   <v>       0.00000000       0.00000000       0.00000000 </v>
   <v>       0.00000000       0.00000000       0.00000000 </v>
   <v>       0.00000000       0.00000000       0.00000000 </v>
  </varray>
 </structure>
</modeling>
