
     Program PWSCF v.5.2.0 starts on 27May2017 at 18:46:43 

     This program is part of the open-source Quantum ESPRESSO suite
     for quantum simulation of materials; please cite
         "P. Giannozzi et al., J. Phys.:Condens. Matter 21 395502 (2009);
          URL http://www.quantum-espresso.org", 
     in publications or presentations arising from this work. More details at
     http://www.quantum-espresso.org/quote

     Parallel version (MPI), running on    32 processors
     R & G space division:  proc/nbgrp/npool/nimage =      32
     Waiting for input...
     Reading input from standard input
Warning: card &IONS ignored
Warning: card     ION_DYNAMICS = 'BFGS' ignored
Warning: card / ignored

     Current dimensions of program PWSCF are:
     Max number of different atomic species (ntypx) = 10
     Max number of k-points (npk) =  40000
     Max angular momentum in pseudopotentials (lmaxx) =  3

     Atomic positions and unit cell read from directory:
     ../out/MoS2-2H.save/
 
               file S.pbe-mt_fhi.UPF: wavefunction(s)  4f renormalized
               file Mo.pbe-mt_fhi.UPF: wavefunction(s)  4f renormalized

     Subspace diagonalization in iterative solution of the eigenvalue problem:
     scalapack distributed-memory algorithm (size of sub-group:  4*  4 procs)

 
     Parallelization info
     --------------------
     sticks:   dense  smooth     PW     G-vecs:    dense   smooth      PW
     Min          11      11      3                  833      833     139
     Max          12      12      4                  854      854     156
     Sum         367     367    121                26935    26935    4705
 


     bravais-lattice index     =            4
     lattice parameter (alat)  =       6.0288  a.u.
     unit-cell volume          =     885.0514 (a.u.)^3
     number of atoms/cell      =            6
     number of atomic types    =            2
     number of electrons       =        36.00
     number of Kohn-Sham states=           22
     kinetic-energy cutoff     =      37.0000  Ry
     charge density cutoff     =     148.0000  Ry
     Exchange-correlation      = PBE ( 1  4  3  4 0 0)

     celldm(1)=   6.028823  celldm(2)=   0.000000  celldm(3)=   4.663803
     celldm(4)=   0.000000  celldm(5)=   0.000000  celldm(6)=   0.000000

     crystal axes: (cart. coord. in units of alat)
               a(1) = (   1.000000   0.000000   0.000000 )  
               a(2) = (  -0.500000   0.866025   0.000000 )  
               a(3) = (   0.000000   0.000000   4.663803 )  

     reciprocal axes: (cart. coord. in units 2 pi/alat)
               b(1) = (  1.000000  0.577350  0.000000 )  
               b(2) = (  0.000000  1.154701  0.000000 )  
               b(3) = (  0.000000  0.000000  0.214417 )  


     PseudoPot. # 1 for  S read from file:
     /home/rehnd/.local/espresso-5.2.0/pseudo/S.pbe-mt_fhi.UPF
     MD5 check sum: 8d6311f2b0c6b1fe55ff6ee81ecbd648
     Pseudo is Norm-conserving, Zval =  6.0
     Generated using FHI98PP, converted with fhi2upf.x v.5.0.2
     Using radial grid of  501 points,  3 beta functions with: 
                l(1) =   0
                l(2) =   1
                l(3) =   3

     PseudoPot. # 2 for Mo read from file:
     /home/rehnd/.local/espresso-5.2.0/pseudo/Mo.pbe-mt_fhi.UPF
     MD5 check sum: 18396533d2e139d8400b78c5161bcdb0
     Pseudo is Norm-conserving, Zval =  6.0
     Generated using FHI98PP, converted with fhi2upf.x v.5.0.2
     Using radial grid of  541 points,  3 beta functions with: 
                l(1) =   0
                l(2) =   2
                l(3) =   3

     atomic species   valence    mass     pseudopotential
        S              6.00    32.06500      S( 1.00)
        Mo             6.00    95.94000     Mo( 1.00)

     24 Sym. Ops., with inversion, found (12 have fractional translation)


                                    s                        frac. trans.

      isym =  1     identity                                     

 cryst.   s( 1) = (     1          0          0      )
                  (     0          1          0      )
                  (     0          0          1      )

 cart.    s( 1) = (  1.0000000  0.0000000  0.0000000 )
                  (  0.0000000  1.0000000  0.0000000 )
                  (  0.0000000  0.0000000  1.0000000 )


      isym =  2     180 deg rotation - cart. axis [0,0,1]        

 cryst.   s( 2) = (    -1          0          0      )    f =(  0.0000000 )
                  (     0         -1          0      )       (  0.0000000 )
                  (     0          0          1      )       (  0.5000000 )

 cart.    s( 2) = ( -1.0000000  0.0000000  0.0000000 )    f =(  0.0000000 )
                  (  0.0000000 -1.0000000  0.0000000 )       (  0.0000000 )
                  (  0.0000000  0.0000000  1.0000000 )       (  2.3319013 )


      isym =  3     180 deg rotation - cart. axis [0,1,0]        

 cryst.   s( 3) = (    -1          0          0      )    f =(  0.0000000 )
                  (     1          1          0      )       (  0.0000000 )
                  (     0          0         -1      )       (  0.5000000 )

 cart.    s( 3) = ( -1.0000000  0.0000000  0.0000000 )    f =(  0.0000000 )
                  (  0.0000000  1.0000000  0.0000000 )       (  0.0000000 )
                  (  0.0000000  0.0000000 -1.0000000 )       (  2.3319013 )


      isym =  4     180 deg rotation - cart. axis [1,0,0]        

 cryst.   s( 4) = (     1          0          0      )
                  (    -1         -1          0      )
                  (     0          0         -1      )

 cart.    s( 4) = (  1.0000000  0.0000000  0.0000000 )
                  (  0.0000000 -1.0000000  0.0000000 )
                  (  0.0000000  0.0000000 -1.0000000 )


      isym =  5      60 deg rotation - cryst. axis [0,0,1]       

 cryst.   s( 5) = (     1          1          0      )    f =(  0.0000000 )
                  (    -1          0          0      )       (  0.0000000 )
                  (     0          0          1      )       (  0.5000000 )

 cart.    s( 5) = (  0.5000000 -0.8660254  0.0000000 )    f =(  0.0000000 )
                  (  0.8660254  0.5000000  0.0000000 )       (  0.0000000 )
                  (  0.0000000  0.0000000  1.0000000 )       (  2.3319013 )


      isym =  6      60 deg rotation - cryst. axis [0,0,-1]      

 cryst.   s( 6) = (     0         -1          0      )    f =(  0.0000000 )
                  (     1          1          0      )       (  0.0000000 )
                  (     0          0          1      )       (  0.5000000 )

 cart.    s( 6) = (  0.5000000  0.8660254  0.0000000 )    f =(  0.0000000 )
                  ( -0.8660254  0.5000000  0.0000000 )       (  0.0000000 )
                  (  0.0000000  0.0000000  1.0000000 )       (  2.3319013 )


      isym =  7     120 deg rotation - cryst. axis [0,0,1]       

 cryst.   s( 7) = (     0          1          0      )
                  (    -1         -1          0      )
                  (     0          0          1      )

 cart.    s( 7) = ( -0.5000000 -0.8660254  0.0000000 )
                  (  0.8660254 -0.5000000  0.0000000 )
                  (  0.0000000  0.0000000  1.0000000 )


      isym =  8     120 deg rotation - cryst. axis [0,0,-1]      

 cryst.   s( 8) = (    -1         -1          0      )
                  (     1          0          0      )
                  (     0          0          1      )

 cart.    s( 8) = ( -0.5000000  0.8660254  0.0000000 )
                  ( -0.8660254 -0.5000000  0.0000000 )
                  (  0.0000000  0.0000000  1.0000000 )


      isym =  9     180 deg rotation - cryst. axis [1,-1,0]      

 cryst.   s( 9) = (     0         -1          0      )    f =(  0.0000000 )
                  (    -1          0          0      )       (  0.0000000 )
                  (     0          0         -1      )       (  0.5000000 )

 cart.    s( 9) = (  0.5000000 -0.8660254  0.0000000 )    f =(  0.0000000 )
                  ( -0.8660254 -0.5000000  0.0000000 )       (  0.0000000 )
                  (  0.0000000  0.0000000 -1.0000000 )       (  2.3319013 )


      isym = 10     180 deg rotation - cryst. axis [2,1,0]       

 cryst.   s(10) = (     1          1          0      )    f =(  0.0000000 )
                  (     0         -1          0      )       (  0.0000000 )
                  (     0          0         -1      )       (  0.5000000 )

 cart.    s(10) = (  0.5000000  0.8660254  0.0000000 )    f =(  0.0000000 )
                  (  0.8660254 -0.5000000  0.0000000 )       (  0.0000000 )
                  (  0.0000000  0.0000000 -1.0000000 )       (  2.3319013 )


      isym = 11     180 deg rotation - cryst. axis [0,1,0]       

 cryst.   s(11) = (    -1         -1          0      )
                  (     0          1          0      )
                  (     0          0         -1      )

 cart.    s(11) = ( -0.5000000 -0.8660254  0.0000000 )
                  ( -0.8660254  0.5000000  0.0000000 )
                  (  0.0000000  0.0000000 -1.0000000 )


      isym = 12     180 deg rotation - cryst. axis [1,1,0]       

 cryst.   s(12) = (     0          1          0      )
                  (     1          0          0      )
                  (     0          0         -1      )

 cart.    s(12) = ( -0.5000000  0.8660254  0.0000000 )
                  (  0.8660254  0.5000000  0.0000000 )
                  (  0.0000000  0.0000000 -1.0000000 )


      isym = 13     inversion                                    

 cryst.   s(13) = (    -1          0          0      )
                  (     0         -1          0      )
                  (     0          0         -1      )

 cart.    s(13) = ( -1.0000000  0.0000000  0.0000000 )
                  (  0.0000000 -1.0000000  0.0000000 )
                  (  0.0000000  0.0000000 -1.0000000 )


      isym = 14     inv. 180 deg rotation - cart. axis [0,0,1]   

 cryst.   s(14) = (     1          0          0      )    f =(  0.0000000 )
                  (     0          1          0      )       (  0.0000000 )
                  (     0          0         -1      )       (  0.5000000 )

 cart.    s(14) = (  1.0000000  0.0000000  0.0000000 )    f =(  0.0000000 )
                  (  0.0000000  1.0000000  0.0000000 )       (  0.0000000 )
                  (  0.0000000  0.0000000 -1.0000000 )       (  2.3319013 )


      isym = 15     inv. 180 deg rotation - cart. axis [0,1,0]   

 cryst.   s(15) = (     1          0          0      )    f =(  0.0000000 )
                  (    -1         -1          0      )       (  0.0000000 )
                  (     0          0          1      )       (  0.5000000 )

 cart.    s(15) = (  1.0000000  0.0000000  0.0000000 )    f =(  0.0000000 )
                  (  0.0000000 -1.0000000  0.0000000 )       (  0.0000000 )
                  (  0.0000000  0.0000000  1.0000000 )       (  2.3319013 )


      isym = 16     inv. 180 deg rotation - cart. axis [1,0,0]   

 cryst.   s(16) = (    -1          0          0      )
                  (     1          1          0      )
                  (     0          0          1      )

 cart.    s(16) = ( -1.0000000  0.0000000  0.0000000 )
                  (  0.0000000  1.0000000  0.0000000 )
                  (  0.0000000  0.0000000  1.0000000 )


      isym = 17     inv.  60 deg rotation - cryst. axis [0,0,1]  

 cryst.   s(17) = (    -1         -1          0      )    f =(  0.0000000 )
                  (     1          0          0      )       (  0.0000000 )
                  (     0          0         -1      )       (  0.5000000 )

 cart.    s(17) = ( -0.5000000  0.8660254  0.0000000 )    f =(  0.0000000 )
                  ( -0.8660254 -0.5000000  0.0000000 )       (  0.0000000 )
                  (  0.0000000  0.0000000 -1.0000000 )       (  2.3319013 )


      isym = 18     inv.  60 deg rotation - cryst. axis [0,0,-1] 

 cryst.   s(18) = (     0          1          0      )    f =(  0.0000000 )
                  (    -1         -1          0      )       (  0.0000000 )
                  (     0          0         -1      )       (  0.5000000 )

 cart.    s(18) = ( -0.5000000 -0.8660254  0.0000000 )    f =(  0.0000000 )
                  (  0.8660254 -0.5000000  0.0000000 )       (  0.0000000 )
                  (  0.0000000  0.0000000 -1.0000000 )       (  2.3319013 )


      isym = 19     inv. 120 deg rotation - cryst. axis [0,0,1]  

 cryst.   s(19) = (     0         -1          0      )
                  (     1          1          0      )
                  (     0          0         -1      )

 cart.    s(19) = (  0.5000000  0.8660254  0.0000000 )
                  ( -0.8660254  0.5000000  0.0000000 )
                  (  0.0000000  0.0000000 -1.0000000 )


      isym = 20     inv. 120 deg rotation - cryst. axis [0,0,-1] 

 cryst.   s(20) = (     1          1          0      )
                  (    -1          0          0      )
                  (     0          0         -1      )

 cart.    s(20) = (  0.5000000 -0.8660254  0.0000000 )
                  (  0.8660254  0.5000000  0.0000000 )
                  (  0.0000000  0.0000000 -1.0000000 )


      isym = 21     inv. 180 deg rotation - cryst. axis [1,-1,0] 

 cryst.   s(21) = (     0          1          0      )    f =(  0.0000000 )
                  (     1          0          0      )       (  0.0000000 )
                  (     0          0          1      )       (  0.5000000 )

 cart.    s(21) = ( -0.5000000  0.8660254  0.0000000 )    f =(  0.0000000 )
                  (  0.8660254  0.5000000  0.0000000 )       (  0.0000000 )
                  (  0.0000000  0.0000000  1.0000000 )       (  2.3319013 )


      isym = 22     inv. 180 deg rotation - cryst. axis [2,1,0]  

 cryst.   s(22) = (    -1         -1          0      )    f =(  0.0000000 )
                  (     0          1          0      )       (  0.0000000 )
                  (     0          0          1      )       (  0.5000000 )

 cart.    s(22) = ( -0.5000000 -0.8660254  0.0000000 )    f =(  0.0000000 )
                  ( -0.8660254  0.5000000  0.0000000 )       (  0.0000000 )
                  (  0.0000000  0.0000000  1.0000000 )       (  2.3319013 )


      isym = 23     inv. 180 deg rotation - cryst. axis [0,1,0]  

 cryst.   s(23) = (     1          1          0      )
                  (     0         -1          0      )
                  (     0          0          1      )

 cart.    s(23) = (  0.5000000  0.8660254  0.0000000 )
                  (  0.8660254 -0.5000000  0.0000000 )
                  (  0.0000000  0.0000000  1.0000000 )


      isym = 24     inv. 180 deg rotation - cryst. axis [1,1,0]  

 cryst.   s(24) = (     0         -1          0      )
                  (    -1          0          0      )
                  (     0          0          1      )

 cart.    s(24) = (  0.5000000 -0.8660254  0.0000000 )
                  ( -0.8660254 -0.5000000  0.0000000 )
                  (  0.0000000  0.0000000  1.0000000 )


     point group D_6h(6/mmm)
     there are 12 classes
     the character table:

       E     2C6   2C3   C2    3C2'  3C2'' i     2S3   2S6   s_h   3s_d  3s_v 
A_1g   1.00  1.00  1.00  1.00  1.00  1.00  1.00  1.00  1.00  1.00  1.00  1.00
A_2g   1.00  1.00  1.00  1.00 -1.00 -1.00  1.00  1.00  1.00  1.00 -1.00 -1.00
B_1g   1.00 -1.00  1.00 -1.00  1.00 -1.00  1.00 -1.00  1.00 -1.00  1.00 -1.00
B_2g   1.00 -1.00  1.00 -1.00 -1.00  1.00  1.00 -1.00  1.00 -1.00 -1.00  1.00
E_1g   2.00  1.00 -1.00 -2.00  0.00  0.00  2.00  1.00 -1.00 -2.00  0.00  0.00
E_2g   2.00 -1.00 -1.00  2.00  0.00  0.00  2.00 -1.00 -1.00  2.00  0.00  0.00
A_1u   1.00  1.00  1.00  1.00  1.00  1.00 -1.00 -1.00 -1.00 -1.00 -1.00 -1.00
A_2u   1.00  1.00  1.00  1.00 -1.00 -1.00 -1.00 -1.00 -1.00 -1.00  1.00  1.00
B_1u   1.00 -1.00  1.00 -1.00  1.00 -1.00 -1.00  1.00 -1.00  1.00 -1.00  1.00
B_2u   1.00 -1.00  1.00 -1.00 -1.00  1.00 -1.00  1.00 -1.00  1.00  1.00 -1.00
E_1u   2.00  1.00 -1.00 -2.00  0.00  0.00 -2.00 -1.00  1.00  2.00  0.00  0.00
E_2u   2.00 -1.00 -1.00  2.00  0.00  0.00 -2.00  1.00  1.00 -2.00  0.00  0.00

     the symmetry operations in each class and the name of the first element:

     E        1
          identity                                               
     2C6      5    6
           60 deg rotation - cryst. axis [0,0,1]                 
     2C3      7    8
          120 deg rotation - cryst. axis [0,0,1]                 
     C2       2
          180 deg rotation - cart. axis [0,0,1]                  
     3C2'     4   12   11
          180 deg rotation - cart. axis [1,0,0]                  
     3C2''    3    9   10
          180 deg rotation - cart. axis [0,1,0]                  
     i       13
          inversion                                              
     2S3     17   18
          inv.  60 deg rotation - cryst. axis [0,0,1]            
     2S6     19   20
          inv. 120 deg rotation - cryst. axis [0,0,1]            
     s_h     14
          inv. 180 deg rotation - cart. axis [0,0,1]             
     3s_d    16   24   23
          inv. 180 deg rotation - cart. axis [1,0,0]             
     3s_v    15   21   22
          inv. 180 deg rotation - cart. axis [0,1,0]             

   Cartesian axes

     site n.     atom                  positions (alat units)
         1           S   tau(   1) = (  -0.0000005   0.5773506   0.6727329  )
         2           S   tau(   2) = (   0.5000005   0.2886748   3.0046342  )
         3           S   tau(   3) = (  -0.0000005   0.5773506   1.6591684  )
         4           S   tau(   4) = (   0.5000005   0.2886748   3.9910697  )
         5           Mo  tau(   5) = (   0.5000005   0.2886748   1.1659506  )
         6           Mo  tau(   6) = (  -0.0000005   0.5773506   3.4978519  )

   Crystallographic axes

     site n.     atom                  positions (cryst. coord.)
         1           S   tau(   1) = (  0.3333330  0.6666670  0.1442456  )
         2           S   tau(   2) = (  0.6666670  0.3333330  0.6442456  )
         3           S   tau(   3) = (  0.3333330  0.6666670  0.3557544  )
         4           S   tau(   4) = (  0.6666670  0.3333330  0.8557544  )
         5           Mo  tau(   5) = (  0.6666670  0.3333330  0.2500000  )
         6           Mo  tau(   6) = (  0.3333330  0.6666670  0.7500000  )

     number of k points=   113  gaussian smearing, width (Ry)=  0.0050
                       cart. coord. in units 2pi/alat
        k(    1) = (   0.0000000   0.0000000   0.0000000), wk =   0.0176991
        k(    2) = (   0.0250000   0.0144338   0.0000000), wk =   0.0176991
        k(    3) = (   0.0500000   0.0288675   0.0000000), wk =   0.0176991
        k(    4) = (   0.0750000   0.0433013   0.0000000), wk =   0.0176991
        k(    5) = (   0.1000000   0.0577350   0.0000000), wk =   0.0176991
        k(    6) = (   0.1250000   0.0721688   0.0000000), wk =   0.0176991
        k(    7) = (   0.1500000   0.0866025   0.0000000), wk =   0.0176991
        k(    8) = (   0.1750000   0.1010363   0.0000000), wk =   0.0176991
        k(    9) = (   0.2000000   0.1154701   0.0000000), wk =   0.0176991
        k(   10) = (   0.2250000   0.1299038   0.0000000), wk =   0.0176991
        k(   11) = (   0.2500000   0.1443376   0.0000000), wk =   0.0176991
        k(   12) = (   0.2750000   0.1587713   0.0000000), wk =   0.0176991
        k(   13) = (   0.3000000   0.1732051   0.0000000), wk =   0.0176991
        k(   14) = (   0.3250000   0.1876388   0.0000000), wk =   0.0176991
        k(   15) = (   0.3500000   0.2020726   0.0000000), wk =   0.0176991
        k(   16) = (   0.3750000   0.2165064   0.0000000), wk =   0.0176991
        k(   17) = (   0.4000000   0.2309401   0.0000000), wk =   0.0176991
        k(   18) = (   0.4250000   0.2453739   0.0000000), wk =   0.0176991
        k(   19) = (   0.4500000   0.2598076   0.0000000), wk =   0.0176991
        k(   20) = (   0.4750000   0.2742414   0.0000000), wk =   0.0176991
        k(   21) = (   0.5000000   0.2886751   0.0000000), wk =   0.0176991
        k(   22) = (   0.4848482   0.3149178   0.0000000), wk =   0.0176991
        k(   23) = (   0.4696964   0.3411605   0.0000000), wk =   0.0176991
        k(   24) = (   0.4545445   0.3674031   0.0000000), wk =   0.0176991
        k(   25) = (   0.4393927   0.3936458   0.0000000), wk =   0.0176991
        k(   26) = (   0.4242409   0.4198885   0.0000000), wk =   0.0176991
        k(   27) = (   0.4090891   0.4461311   0.0000000), wk =   0.0176991
        k(   28) = (   0.3939373   0.4723738   0.0000000), wk =   0.0176991
        k(   29) = (   0.3787855   0.4986165   0.0000000), wk =   0.0176991
        k(   30) = (   0.3636336   0.5248592   0.0000000), wk =   0.0176991
        k(   31) = (   0.3484818   0.5511018   0.0000000), wk =   0.0176991
        k(   32) = (   0.3333300   0.5773445   0.0000000), wk =   0.0176991
        k(   33) = (   0.3188374   0.5522426   0.0000000), wk =   0.0176991
        k(   34) = (   0.3043448   0.5271406   0.0000000), wk =   0.0176991
        k(   35) = (   0.2898522   0.5020387   0.0000000), wk =   0.0176991
        k(   36) = (   0.2753596   0.4769368   0.0000000), wk =   0.0176991
        k(   37) = (   0.2608670   0.4518348   0.0000000), wk =   0.0176991
        k(   38) = (   0.2463743   0.4267329   0.0000000), wk =   0.0176991
        k(   39) = (   0.2318817   0.4016310   0.0000000), wk =   0.0176991
        k(   40) = (   0.2173891   0.3765290   0.0000000), wk =   0.0176991
        k(   41) = (   0.2028965   0.3514271   0.0000000), wk =   0.0176991
        k(   42) = (   0.1884039   0.3263251   0.0000000), wk =   0.0176991
        k(   43) = (   0.1739113   0.3012232   0.0000000), wk =   0.0176991
        k(   44) = (   0.1594187   0.2761213   0.0000000), wk =   0.0176991
        k(   45) = (   0.1449261   0.2510193   0.0000000), wk =   0.0176991
        k(   46) = (   0.1304335   0.2259174   0.0000000), wk =   0.0176991
        k(   47) = (   0.1159409   0.2008155   0.0000000), wk =   0.0176991
        k(   48) = (   0.1014483   0.1757135   0.0000000), wk =   0.0176991
        k(   49) = (   0.0869557   0.1506116   0.0000000), wk =   0.0176991
        k(   50) = (   0.0724630   0.1255097   0.0000000), wk =   0.0176991
        k(   51) = (   0.0579704   0.1004077   0.0000000), wk =   0.0176991
        k(   52) = (   0.0434778   0.0753058   0.0000000), wk =   0.0176991
        k(   53) = (   0.0289852   0.0502039   0.0000000), wk =   0.0176991
        k(   54) = (   0.0144926   0.0251019   0.0000000), wk =   0.0176991
        k(   55) = (   0.0000000   0.0000000   0.0000000), wk =   0.0176991
        k(   56) = (   0.0000000   0.0000000   0.0268022), wk =   0.0176991
        k(   57) = (   0.0000000   0.0000000   0.0536043), wk =   0.0176991
        k(   58) = (   0.0000000   0.0000000   0.0804065), wk =   0.0176991
        k(   59) = (   0.0000000   0.0000000   0.1072087), wk =   0.0176991
        k(   60) = (   0.0250000   0.0144338   0.1072087), wk =   0.0176991
        k(   61) = (   0.0500000   0.0288675   0.1072087), wk =   0.0176991
        k(   62) = (   0.0750000   0.0433013   0.1072087), wk =   0.0176991
        k(   63) = (   0.1000000   0.0577350   0.1072087), wk =   0.0176991
        k(   64) = (   0.1250000   0.0721688   0.1072087), wk =   0.0176991
        k(   65) = (   0.1500000   0.0866025   0.1072087), wk =   0.0176991
        k(   66) = (   0.1750000   0.1010363   0.1072087), wk =   0.0176991
        k(   67) = (   0.2000000   0.1154701   0.1072087), wk =   0.0176991
        k(   68) = (   0.2250000   0.1299038   0.1072087), wk =   0.0176991
        k(   69) = (   0.2500000   0.1443376   0.1072087), wk =   0.0176991
        k(   70) = (   0.2750000   0.1587713   0.1072087), wk =   0.0176991
        k(   71) = (   0.3000000   0.1732051   0.1072087), wk =   0.0176991
        k(   72) = (   0.3250000   0.1876388   0.1072087), wk =   0.0176991
        k(   73) = (   0.3500000   0.2020726   0.1072087), wk =   0.0176991
        k(   74) = (   0.3750000   0.2165064   0.1072087), wk =   0.0176991
        k(   75) = (   0.4000000   0.2309401   0.1072087), wk =   0.0176991
        k(   76) = (   0.4250000   0.2453739   0.1072087), wk =   0.0176991
        k(   77) = (   0.4500000   0.2598076   0.1072087), wk =   0.0176991
        k(   78) = (   0.4750000   0.2742414   0.1072087), wk =   0.0176991
        k(   79) = (   0.5000000   0.2886751   0.1072087), wk =   0.0176991
        k(   80) = (   0.4848482   0.3149178   0.1072087), wk =   0.0176991
        k(   81) = (   0.4696964   0.3411605   0.1072087), wk =   0.0176991
        k(   82) = (   0.4545445   0.3674031   0.1072087), wk =   0.0176991
        k(   83) = (   0.4393927   0.3936458   0.1072087), wk =   0.0176991
        k(   84) = (   0.4242409   0.4198885   0.1072087), wk =   0.0176991
        k(   85) = (   0.4090891   0.4461311   0.1072087), wk =   0.0176991
        k(   86) = (   0.3939373   0.4723738   0.1072087), wk =   0.0176991
        k(   87) = (   0.3787855   0.4986165   0.1072087), wk =   0.0176991
        k(   88) = (   0.3636336   0.5248592   0.1072087), wk =   0.0176991
        k(   89) = (   0.3484818   0.5511018   0.1072087), wk =   0.0176991
        k(   90) = (   0.3333300   0.5773445   0.1072087), wk =   0.0176991
        k(   91) = (   0.3188374   0.5522426   0.1072087), wk =   0.0176991
        k(   92) = (   0.3043448   0.5271406   0.1072087), wk =   0.0176991
        k(   93) = (   0.2898522   0.5020387   0.1072087), wk =   0.0176991
        k(   94) = (   0.2753596   0.4769368   0.1072087), wk =   0.0176991
        k(   95) = (   0.2608670   0.4518348   0.1072087), wk =   0.0176991
        k(   96) = (   0.2463743   0.4267329   0.1072087), wk =   0.0176991
        k(   97) = (   0.2318817   0.4016310   0.1072087), wk =   0.0176991
        k(   98) = (   0.2173891   0.3765290   0.1072087), wk =   0.0176991
        k(   99) = (   0.2028965   0.3514271   0.1072087), wk =   0.0176991
        k(  100) = (   0.1884039   0.3263251   0.1072087), wk =   0.0176991
        k(  101) = (   0.1739113   0.3012232   0.1072087), wk =   0.0176991
        k(  102) = (   0.1594187   0.2761213   0.1072087), wk =   0.0176991
        k(  103) = (   0.1449261   0.2510193   0.1072087), wk =   0.0176991
        k(  104) = (   0.1304335   0.2259174   0.1072087), wk =   0.0176991
        k(  105) = (   0.1159409   0.2008155   0.1072087), wk =   0.0176991
        k(  106) = (   0.1014483   0.1757135   0.1072087), wk =   0.0176991
        k(  107) = (   0.0869557   0.1506116   0.1072087), wk =   0.0176991
        k(  108) = (   0.0724630   0.1255097   0.1072087), wk =   0.0176991
        k(  109) = (   0.0579704   0.1004077   0.1072087), wk =   0.0176991
        k(  110) = (   0.0434778   0.0753058   0.1072087), wk =   0.0176991
        k(  111) = (   0.0289852   0.0502039   0.1072087), wk =   0.0176991
        k(  112) = (   0.0144926   0.0251019   0.1072087), wk =   0.0176991
        k(  113) = (   0.0000000   0.0000000   0.1072087), wk =   0.0176991

                       cryst. coord.
        k(    1) = (   0.0000000   0.0000000   0.0000000), wk =   0.0176991
        k(    2) = (   0.0250000   0.0000000   0.0000000), wk =   0.0176991
        k(    3) = (   0.0500000   0.0000000   0.0000000), wk =   0.0176991
        k(    4) = (   0.0750000   0.0000000   0.0000000), wk =   0.0176991
        k(    5) = (   0.1000000   0.0000000   0.0000000), wk =   0.0176991
        k(    6) = (   0.1250000   0.0000000   0.0000000), wk =   0.0176991
        k(    7) = (   0.1500000   0.0000000   0.0000000), wk =   0.0176991
        k(    8) = (   0.1750000   0.0000000   0.0000000), wk =   0.0176991
        k(    9) = (   0.2000000   0.0000000   0.0000000), wk =   0.0176991
        k(   10) = (   0.2250000   0.0000000   0.0000000), wk =   0.0176991
        k(   11) = (   0.2500000   0.0000000   0.0000000), wk =   0.0176991
        k(   12) = (   0.2750000   0.0000000   0.0000000), wk =   0.0176991
        k(   13) = (   0.3000000   0.0000000   0.0000000), wk =   0.0176991
        k(   14) = (   0.3250000   0.0000000   0.0000000), wk =   0.0176991
        k(   15) = (   0.3500000   0.0000000   0.0000000), wk =   0.0176991
        k(   16) = (   0.3750000   0.0000000   0.0000000), wk =   0.0176991
        k(   17) = (   0.4000000   0.0000000   0.0000000), wk =   0.0176991
        k(   18) = (   0.4250000   0.0000000   0.0000000), wk =   0.0176991
        k(   19) = (   0.4500000   0.0000000   0.0000000), wk =   0.0176991
        k(   20) = (   0.4750000   0.0000000   0.0000000), wk =   0.0176991
        k(   21) = (   0.5000000   0.0000000   0.0000000), wk =   0.0176991
        k(   22) = (   0.4848482   0.0303027   0.0000000), wk =   0.0176991
        k(   23) = (   0.4696964   0.0606055   0.0000000), wk =   0.0176991
        k(   24) = (   0.4545445   0.0909082   0.0000000), wk =   0.0176991
        k(   25) = (   0.4393927   0.1212109   0.0000000), wk =   0.0176991
        k(   26) = (   0.4242409   0.1515136   0.0000000), wk =   0.0176991
        k(   27) = (   0.4090891   0.1818164   0.0000000), wk =   0.0176991
        k(   28) = (   0.3939373   0.2121191   0.0000000), wk =   0.0176991
        k(   29) = (   0.3787855   0.2424218   0.0000000), wk =   0.0176991
        k(   30) = (   0.3636336   0.2727245   0.0000000), wk =   0.0176991
        k(   31) = (   0.3484818   0.3030273   0.0000000), wk =   0.0176991
        k(   32) = (   0.3333300   0.3333300   0.0000000), wk =   0.0176991
        k(   33) = (   0.3188374   0.3188374   0.0000000), wk =   0.0176991
        k(   34) = (   0.3043448   0.3043448   0.0000000), wk =   0.0176991
        k(   35) = (   0.2898522   0.2898522   0.0000000), wk =   0.0176991
        k(   36) = (   0.2753596   0.2753596   0.0000000), wk =   0.0176991
        k(   37) = (   0.2608670   0.2608670   0.0000000), wk =   0.0176991
        k(   38) = (   0.2463743   0.2463743   0.0000000), wk =   0.0176991
        k(   39) = (   0.2318817   0.2318817   0.0000000), wk =   0.0176991
        k(   40) = (   0.2173891   0.2173891   0.0000000), wk =   0.0176991
        k(   41) = (   0.2028965   0.2028965   0.0000000), wk =   0.0176991
        k(   42) = (   0.1884039   0.1884039   0.0000000), wk =   0.0176991
        k(   43) = (   0.1739113   0.1739113   0.0000000), wk =   0.0176991
        k(   44) = (   0.1594187   0.1594187   0.0000000), wk =   0.0176991
        k(   45) = (   0.1449261   0.1449261   0.0000000), wk =   0.0176991
        k(   46) = (   0.1304335   0.1304335   0.0000000), wk =   0.0176991
        k(   47) = (   0.1159409   0.1159409   0.0000000), wk =   0.0176991
        k(   48) = (   0.1014483   0.1014483   0.0000000), wk =   0.0176991
        k(   49) = (   0.0869557   0.0869557   0.0000000), wk =   0.0176991
        k(   50) = (   0.0724630   0.0724630   0.0000000), wk =   0.0176991
        k(   51) = (   0.0579704   0.0579704   0.0000000), wk =   0.0176991
        k(   52) = (   0.0434778   0.0434778   0.0000000), wk =   0.0176991
        k(   53) = (   0.0289852   0.0289852   0.0000000), wk =   0.0176991
        k(   54) = (   0.0144926   0.0144926   0.0000000), wk =   0.0176991
        k(   55) = (   0.0000000   0.0000000   0.0000000), wk =   0.0176991
        k(   56) = (   0.0000000   0.0000000   0.1250000), wk =   0.0176991
        k(   57) = (   0.0000000   0.0000000   0.2500000), wk =   0.0176991
        k(   58) = (   0.0000000   0.0000000   0.3750000), wk =   0.0176991
        k(   59) = (   0.0000000   0.0000000   0.5000000), wk =   0.0176991
        k(   60) = (   0.0250000   0.0000000   0.5000000), wk =   0.0176991
        k(   61) = (   0.0500000   0.0000000   0.5000000), wk =   0.0176991
        k(   62) = (   0.0750000   0.0000000   0.5000000), wk =   0.0176991
        k(   63) = (   0.1000000   0.0000000   0.5000000), wk =   0.0176991
        k(   64) = (   0.1250000   0.0000000   0.5000000), wk =   0.0176991
        k(   65) = (   0.1500000   0.0000000   0.5000000), wk =   0.0176991
        k(   66) = (   0.1750000   0.0000000   0.5000000), wk =   0.0176991
        k(   67) = (   0.2000000   0.0000000   0.5000000), wk =   0.0176991
        k(   68) = (   0.2250000   0.0000000   0.5000000), wk =   0.0176991
        k(   69) = (   0.2500000   0.0000000   0.5000000), wk =   0.0176991
        k(   70) = (   0.2750000   0.0000000   0.5000000), wk =   0.0176991
        k(   71) = (   0.3000000   0.0000000   0.5000000), wk =   0.0176991
        k(   72) = (   0.3250000   0.0000000   0.5000000), wk =   0.0176991
        k(   73) = (   0.3500000   0.0000000   0.5000000), wk =   0.0176991
        k(   74) = (   0.3750000   0.0000000   0.5000000), wk =   0.0176991
        k(   75) = (   0.4000000   0.0000000   0.5000000), wk =   0.0176991
        k(   76) = (   0.4250000   0.0000000   0.5000000), wk =   0.0176991
        k(   77) = (   0.4500000   0.0000000   0.5000000), wk =   0.0176991
        k(   78) = (   0.4750000   0.0000000   0.5000000), wk =   0.0176991
        k(   79) = (   0.5000000   0.0000000   0.5000000), wk =   0.0176991
        k(   80) = (   0.4848482   0.0303027   0.5000000), wk =   0.0176991
        k(   81) = (   0.4696964   0.0606055   0.5000000), wk =   0.0176991
        k(   82) = (   0.4545445   0.0909082   0.5000000), wk =   0.0176991
        k(   83) = (   0.4393927   0.1212109   0.5000000), wk =   0.0176991
        k(   84) = (   0.4242409   0.1515136   0.5000000), wk =   0.0176991
        k(   85) = (   0.4090891   0.1818164   0.5000000), wk =   0.0176991
        k(   86) = (   0.3939373   0.2121191   0.5000000), wk =   0.0176991
        k(   87) = (   0.3787855   0.2424218   0.5000000), wk =   0.0176991
        k(   88) = (   0.3636336   0.2727245   0.5000000), wk =   0.0176991
        k(   89) = (   0.3484818   0.3030273   0.5000000), wk =   0.0176991
        k(   90) = (   0.3333300   0.3333300   0.5000000), wk =   0.0176991
        k(   91) = (   0.3188374   0.3188374   0.5000000), wk =   0.0176991
        k(   92) = (   0.3043448   0.3043448   0.5000000), wk =   0.0176991
        k(   93) = (   0.2898522   0.2898522   0.5000000), wk =   0.0176991
        k(   94) = (   0.2753596   0.2753596   0.5000000), wk =   0.0176991
        k(   95) = (   0.2608670   0.2608670   0.5000000), wk =   0.0176991
        k(   96) = (   0.2463743   0.2463743   0.5000000), wk =   0.0176991
        k(   97) = (   0.2318817   0.2318817   0.5000000), wk =   0.0176991
        k(   98) = (   0.2173891   0.2173891   0.5000000), wk =   0.0176991
        k(   99) = (   0.2028965   0.2028965   0.5000000), wk =   0.0176991
        k(  100) = (   0.1884039   0.1884039   0.5000000), wk =   0.0176991
        k(  101) = (   0.1739113   0.1739113   0.5000000), wk =   0.0176991
        k(  102) = (   0.1594187   0.1594187   0.5000000), wk =   0.0176991
        k(  103) = (   0.1449261   0.1449261   0.5000000), wk =   0.0176991
        k(  104) = (   0.1304335   0.1304335   0.5000000), wk =   0.0176991
        k(  105) = (   0.1159409   0.1159409   0.5000000), wk =   0.0176991
        k(  106) = (   0.1014483   0.1014483   0.5000000), wk =   0.0176991
        k(  107) = (   0.0869557   0.0869557   0.5000000), wk =   0.0176991
        k(  108) = (   0.0724630   0.0724630   0.5000000), wk =   0.0176991
        k(  109) = (   0.0579704   0.0579704   0.5000000), wk =   0.0176991
        k(  110) = (   0.0434778   0.0434778   0.5000000), wk =   0.0176991
        k(  111) = (   0.0289852   0.0289852   0.5000000), wk =   0.0176991
        k(  112) = (   0.0144926   0.0144926   0.5000000), wk =   0.0176991
        k(  113) = (   0.0000000   0.0000000   0.5000000), wk =   0.0176991

     Dense  grid:    26935 G-vectors     FFT dimensions: (  24,  24, 120)

     Largest allocated arrays     est. size (Mb)     dimensions
        Kohn-Sham Wavefunctions         0.04 Mb     (     110,   22)
        NL pseudopotentials             0.12 Mb     (     110,   70)
        Each V/rho on FFT grid          0.04 Mb     (    2304)
        Each G-vector array             0.01 Mb     (     854)
        G-vector shells                 0.00 Mb     (     364)
     Largest temporary arrays     est. size (Mb)     dimensions
        Auxiliary wavefunctions         0.15 Mb     (     110,   88)
        Each subspace H/S matrix        0.01 Mb     (      22,   22)
        Each <psi_i|beta_j> matrix      0.02 Mb     (      70,   22)

     The potential is recalculated from file :
     ../out/MoS2-2H.save/charge-density.dat

     Starting wfc are   96 randomized atomic wfcs

     Band Structure Calculation
     Davidson diagonalization with overlap

     Computing kpt #:     1
     total cpu time spent up to now is        1.6 secs

     Computing kpt #:     2
     total cpu time spent up to now is        2.1 secs

     Computing kpt #:     3
     total cpu time spent up to now is        2.7 secs

     Computing kpt #:     4
     total cpu time spent up to now is        3.2 secs

     Computing kpt #:     5
     total cpu time spent up to now is        3.6 secs

     Computing kpt #:     6
     total cpu time spent up to now is        4.2 secs

     Computing kpt #:     7
     total cpu time spent up to now is        4.6 secs

     Computing kpt #:     8
     total cpu time spent up to now is        5.2 secs

     Computing kpt #:     9
     total cpu time spent up to now is        5.6 secs

     Computing kpt #:    10
     total cpu time spent up to now is        6.0 secs

     Computing kpt #:    11
     total cpu time spent up to now is        6.4 secs

     Computing kpt #:    12
     total cpu time spent up to now is        6.8 secs

     Computing kpt #:    13
     total cpu time spent up to now is        7.1 secs

     Computing kpt #:    14
     total cpu time spent up to now is        7.5 secs

     Computing kpt #:    15
     total cpu time spent up to now is        7.9 secs

     Computing kpt #:    16
     total cpu time spent up to now is        8.2 secs

     Computing kpt #:    17
     total cpu time spent up to now is        8.6 secs

     Computing kpt #:    18
     total cpu time spent up to now is        8.9 secs

     Computing kpt #:    19
     total cpu time spent up to now is        9.3 secs

     Computing kpt #:    20
     total cpu time spent up to now is        9.7 secs

     Computing kpt #:    21
     total cpu time spent up to now is       10.1 secs

     Computing kpt #:    22
     total cpu time spent up to now is       10.5 secs

     Computing kpt #:    23
     total cpu time spent up to now is       10.8 secs

     Computing kpt #:    24
     total cpu time spent up to now is       11.2 secs

     Computing kpt #:    25
     total cpu time spent up to now is       11.6 secs

     Computing kpt #:    26
     total cpu time spent up to now is       12.0 secs

     Computing kpt #:    27
     total cpu time spent up to now is       12.4 secs

     Computing kpt #:    28
     total cpu time spent up to now is       12.9 secs

     Computing kpt #:    29
     total cpu time spent up to now is       13.5 secs

     Computing kpt #:    30
     total cpu time spent up to now is       13.9 secs

     Computing kpt #:    31
     total cpu time spent up to now is       14.4 secs

     Computing kpt #:    32
     total cpu time spent up to now is       14.8 secs

     Computing kpt #:    33
     total cpu time spent up to now is       15.3 secs

     Computing kpt #:    34
     total cpu time spent up to now is       15.8 secs

     Computing kpt #:    35
     total cpu time spent up to now is       16.7 secs

     Computing kpt #:    36
     total cpu time spent up to now is       17.2 secs

     Computing kpt #:    37
     total cpu time spent up to now is       17.7 secs

     Computing kpt #:    38
     total cpu time spent up to now is       18.1 secs

     Computing kpt #:    39
     total cpu time spent up to now is       18.5 secs

     Computing kpt #:    40
     total cpu time spent up to now is       18.9 secs

     Computing kpt #:    41
     total cpu time spent up to now is       19.3 secs

     Computing kpt #:    42
     total cpu time spent up to now is       19.7 secs

     Computing kpt #:    43
     total cpu time spent up to now is       20.3 secs

     Computing kpt #:    44
     total cpu time spent up to now is       20.9 secs

     Computing kpt #:    45
     total cpu time spent up to now is       21.5 secs

     Computing kpt #:    46
     total cpu time spent up to now is       22.1 secs

     Computing kpt #:    47
     total cpu time spent up to now is       22.8 secs

     Computing kpt #:    48
     total cpu time spent up to now is       23.3 secs

     Computing kpt #:    49
     total cpu time spent up to now is       23.9 secs

     Computing kpt #:    50
     total cpu time spent up to now is       24.4 secs

     Computing kpt #:    51
     total cpu time spent up to now is       24.8 secs

     Computing kpt #:    52
     total cpu time spent up to now is       25.2 secs

     Computing kpt #:    53
     total cpu time spent up to now is       25.9 secs

     Computing kpt #:    54
     total cpu time spent up to now is       26.3 secs

     Computing kpt #:    55
     total cpu time spent up to now is       26.7 secs

     Computing kpt #:    56
     total cpu time spent up to now is       27.2 secs

     Computing kpt #:    57
     total cpu time spent up to now is       27.6 secs

     Computing kpt #:    58
     total cpu time spent up to now is       28.0 secs

     Computing kpt #:    59
     total cpu time spent up to now is       28.5 secs

     Computing kpt #:    60
     total cpu time spent up to now is       28.9 secs

     Computing kpt #:    61
     total cpu time spent up to now is       29.5 secs

     Computing kpt #:    62
     total cpu time spent up to now is       29.9 secs

     Computing kpt #:    63
     total cpu time spent up to now is       30.4 secs

     Computing kpt #:    64
     total cpu time spent up to now is       30.8 secs

     Computing kpt #:    65
     total cpu time spent up to now is       31.4 secs

     Computing kpt #:    66
     total cpu time spent up to now is       31.8 secs

     Computing kpt #:    67
     total cpu time spent up to now is       32.2 secs

     Computing kpt #:    68
     total cpu time spent up to now is       32.6 secs

     Computing kpt #:    69
     total cpu time spent up to now is       33.0 secs

     Computing kpt #:    70
     total cpu time spent up to now is       33.4 secs

     Computing kpt #:    71
     total cpu time spent up to now is       33.9 secs

     Computing kpt #:    72
     total cpu time spent up to now is       34.3 secs

     Computing kpt #:    73
     total cpu time spent up to now is       34.7 secs

     Computing kpt #:    74
     total cpu time spent up to now is       35.0 secs

     Computing kpt #:    75
     total cpu time spent up to now is       35.7 secs

     Computing kpt #:    76
     total cpu time spent up to now is       36.0 secs

     Computing kpt #:    77
     total cpu time spent up to now is       36.4 secs

     Computing kpt #:    78
     total cpu time spent up to now is       36.8 secs

     Computing kpt #:    79
     total cpu time spent up to now is       37.2 secs

     Computing kpt #:    80
     total cpu time spent up to now is       37.5 secs

     Computing kpt #:    81
     total cpu time spent up to now is       37.9 secs

     Computing kpt #:    82
     total cpu time spent up to now is       38.3 secs

     Computing kpt #:    83
     total cpu time spent up to now is       38.7 secs

     Computing kpt #:    84
     total cpu time spent up to now is       39.1 secs

     Computing kpt #:    85
     total cpu time spent up to now is       39.5 secs

     Computing kpt #:    86
     total cpu time spent up to now is       39.9 secs

     Computing kpt #:    87
     total cpu time spent up to now is       40.5 secs

     Computing kpt #:    88
     total cpu time spent up to now is       40.9 secs

     Computing kpt #:    89
     total cpu time spent up to now is       41.3 secs

     Computing kpt #:    90
     total cpu time spent up to now is       41.8 secs

     Computing kpt #:    91
     total cpu time spent up to now is       42.2 secs

     Computing kpt #:    92
     total cpu time spent up to now is       42.7 secs

     Computing kpt #:    93
     total cpu time spent up to now is       43.1 secs

     Computing kpt #:    94
     total cpu time spent up to now is       43.6 secs

     Computing kpt #:    95
     total cpu time spent up to now is       44.0 secs

     Computing kpt #:    96
     total cpu time spent up to now is       44.4 secs

     Computing kpt #:    97
     total cpu time spent up to now is       44.8 secs

     Computing kpt #:    98
     total cpu time spent up to now is       45.2 secs

     Computing kpt #:    99
     total cpu time spent up to now is       45.6 secs

     Computing kpt #:   100
     total cpu time spent up to now is       46.0 secs

     Computing kpt #:   101
     total cpu time spent up to now is       46.5 secs

     Computing kpt #:   102
     total cpu time spent up to now is       47.0 secs

     Computing kpt #:   103
     total cpu time spent up to now is       47.5 secs

     Computing kpt #:   104
     total cpu time spent up to now is       48.0 secs

     Computing kpt #:   105
     total cpu time spent up to now is       48.6 secs

     Computing kpt #:   106
     total cpu time spent up to now is       49.2 secs

     Computing kpt #:   107
     total cpu time spent up to now is       49.8 secs

     Computing kpt #:   108
     total cpu time spent up to now is       50.3 secs

     Computing kpt #:   109
     total cpu time spent up to now is       50.7 secs

     Computing kpt #:   110
     total cpu time spent up to now is       51.1 secs

     Computing kpt #:   111
     total cpu time spent up to now is       51.8 secs

     Computing kpt #:   112
     total cpu time spent up to now is       52.2 secs

     Computing kpt #:   113
     total cpu time spent up to now is       52.7 secs

     ethr =  2.78E-13,  avg # of iterations = 40.4

     total cpu time spent up to now is       52.7 secs

     End of band structure calculation

          k = 0.0000 0.0000 0.0000 (  3337 PWs)   bands (ev):

    -8.3677  -8.3472  -7.2809  -7.2445   0.0821   0.2516   3.1574   3.1574
     3.1579   3.1579   3.5661   4.1394   4.2343   4.2344   4.2360   4.2360
     5.4481   5.8270   8.4671   8.4672   8.4690   8.4691

          k = 0.0250 0.0144 0.0000 (  3341 PWs)   bands (ev):

    -8.3591  -8.3389  -7.2758  -7.2397   0.0920   0.2613   3.1358   3.1363
     3.1662   3.1668   3.5320   4.0094   4.2191   4.2209   4.2575   4.3494
     5.4465   5.8198   8.4526   8.4541   8.4846   8.4869

          k = 0.0500 0.0289 0.0000 (  3349 PWs)   bands (ev):

    -8.3341  -8.3139  -7.2599  -7.2249   0.1212   0.2902   3.0724   3.0732
     3.1924   3.1931   3.4421   3.8316   4.1745   4.1764   4.3084   4.4811
     5.4412   5.7976   8.4082   8.4188   8.5357   8.5391

          k = 0.0750 0.0433 0.0000 (  3350 PWs)   bands (ev):

    -8.2923  -8.2722  -7.2342  -7.2001   0.1688   0.3374   2.9718   2.9727
     3.2356   3.2366   3.3180   3.6445   4.1040   4.1061   4.3645   4.5877
     5.4298   5.7584   8.3479   8.3743   8.4060   8.4866

          k = 0.1000 0.0577 0.0000 (  3336 PWs)   bands (ev):

    -8.2343  -8.2145  -7.1984  -7.1651   0.2334   0.4011   2.8400   2.8414
     3.1738   3.2952   3.2963   3.4515   4.0122   4.0145   4.4078   4.6607
     5.4087   5.6994   8.2412   8.2881   8.3373   8.3763

          k = 0.1250 0.0722 0.0000 (  3324 PWs)   bands (ev):

    -8.1608  -8.1414  -7.1535  -7.1213   0.3122   0.4784   2.6847   2.6872
     3.0169   3.2542   3.3700   3.3713   3.9043   3.9070   4.4275   4.6947
     5.3732   5.6179   8.0735   8.2447   8.2651   8.3234

          k = 0.1500 0.0866 0.0000 (  3336 PWs)   bands (ev):

    -8.0733  -8.0544  -7.1004  -7.0692   0.4016   0.5652   2.5140   2.5184
     2.8508   3.0532   3.4582   3.4599   3.7854   3.7883   4.4189   4.6883
     5.3182   5.5129   7.9208   8.1656   8.2304   8.3357

          k = 0.1750 0.1010 0.0000 (  3344 PWs)   bands (ev):

    -7.9728  -7.9542  -7.0391  -7.0091   0.4960   0.6552   2.3367   2.3444
     2.6773   2.8489   3.5582   3.5603   3.6604   3.6636   4.3825   4.6451
     5.2409   5.3866   7.7979   8.0872   8.2472   8.2522

          k = 0.2000 0.1155 0.0000 (  3336 PWs)   bands (ev):

    -7.8603  -7.8416  -6.9708  -6.9424   0.5873   0.7391   2.1625   2.1762
     2.4974   2.6420   3.5334   3.5367   3.6677   3.6703   4.3232   4.5731
     5.1423   5.2451   7.7143   8.0347   8.1612   8.1775

          k = 0.2250 0.1299 0.0000 (  3338 PWs)   bands (ev):

    -7.7377  -7.7199  -6.8969  -6.8698   0.6639   0.8032   2.0024   2.0260
     2.3122   2.4330   3.4076   3.4112   3.7840   3.7871   4.2485   4.4822
     5.0285   5.0982   7.6729   8.0088   8.0818   8.0981

          k = 0.2500 0.1443 0.0000 (  3344 PWs)   bands (ev):

    -7.6074  -7.5900  -6.8188  -6.7935   0.7100   0.8301   1.8697   1.9089
     2.1234   2.2237   3.2860   3.2897   3.9038   3.9077   4.1666   4.3822
     4.9104   4.9588   7.6717   8.0075   8.0124   8.0284

          k = 0.2750 0.1588 0.0000 (  3358 PWs)   bands (ev):

    -7.4718  -7.4552  -6.7382  -6.7143   0.7097   0.8050   1.7766   1.8356
     1.9335   2.0164   3.1708   3.1747   4.0240   4.0286   4.0848   4.2812
     4.8016   4.8405   7.7050   7.9561   7.9714   8.0274

          k = 0.3000 0.1732 0.0000 (  3378 PWs)   bands (ev):

    -7.3335  -7.3179  -6.6568  -6.6348   0.6568   0.7278   1.7252   1.7460
     1.8019   1.8143   3.0639   3.0678   4.0084   4.1407   4.1462   4.1849
     4.7160   4.7546   7.7662   7.9149   7.9290   8.0647

          k = 0.3250 0.1876 0.0000 (  3380 PWs)   bands (ev):

    -7.1962  -7.1816  -6.5758  -6.5564   0.5615   0.6142   1.5651   1.6214
     1.7028   1.7899   2.9667   2.9708   3.9411   4.0971   4.2504   4.2570
     4.6656   4.7076   7.8483   7.8894   7.9022   8.1156

          k = 0.3500 0.2021 0.0000 (  3382 PWs)   bands (ev):

    -7.0633  -7.0497  -6.4989  -6.4814   0.4423   0.4833   1.3953   1.4418
     1.6914   1.7816   2.8805   2.8846   3.8847   4.0196   4.3500   4.3577
     4.6549   4.7010   7.8794   7.8905   7.9452   8.1762

          k = 0.3750 0.2165 0.0000 (  3384 PWs)   bands (ev):

    -6.9389  -6.9273  -6.4283  -6.4120   0.3167   0.3507   1.2416   1.2801
     1.6789   1.7678   2.8061   2.8103   3.8397   3.9532   4.4368   4.4456
     4.6811   4.7296   7.8827   7.8920   8.0505   8.2431

          k = 0.4000 0.2309 0.0000 (  3390 PWs)   bands (ev):

    -6.8288  -6.8181  -6.3652  -6.3514   0.1977   0.2276   1.1083   1.1404
     1.6618   1.7475   2.7444   2.7486   3.8061   3.8978   4.5088   4.5188
     4.7347   4.7819   7.8958   7.9034   8.1579   8.3123

          k = 0.4250 0.2454 0.0000 (  3378 PWs)   bands (ev):

    -6.7359  -6.7268  -6.3129  -6.3015   0.0950   0.1227   0.9998   1.0270
     1.6419   1.7244   2.6959   2.7001   3.7835   3.8531   4.5651   4.5761
     4.8015   4.8431   7.9142   7.9202   8.2597   8.3785

          k = 0.4500 0.2598 0.0000 (  3374 PWs)   bands (ev):

    -6.6659  -6.6583  -6.2732  -6.2646   0.0161   0.0425   0.9197   0.9432
     1.6236   1.7034   2.6609   2.6652   3.7711   3.8186   4.6053   4.6170
     4.8661   4.8977   7.9321   7.9372   8.3460   8.4350

          k = 0.4750 0.2742 0.0000 (  3376 PWs)   bands (ev):

    -6.6222  -6.6160  -6.2491  -6.2412  -0.0335  -0.0077   0.8705   0.8916
     1.6107   1.6889   2.6399   2.6441   3.7679   3.7940   4.6292   4.6414
     4.9146   4.9330   7.9454   7.9496   8.4050   8.4737

          k = 0.5000 0.2887 0.0000 (  3376 PWs)   bands (ev):

    -6.6072  -6.6017  -6.2406  -6.2333  -0.0505  -0.0248   0.8539   0.8743
     1.6062   1.6836   2.6328   2.6370   3.7701   3.7827   4.6372   4.6495
     4.9346   4.9432   7.9502   7.9538   8.4262   8.4876

          k = 0.4848 0.3149 0.0000 (  3366 PWs)   bands (ev):

    -6.6029  -6.5970  -6.2375  -6.2304  -0.0378  -0.0122   0.8488   0.8681
     1.6105   1.6877   2.6266   2.6280   3.7719   3.7863   4.5318   4.5432
     4.9951   5.0060   7.9550   7.9561   8.4304   8.4941

          k = 0.4697 0.3412 0.0000 (  3366 PWs)   bands (ev):

    -6.5909  -6.5850  -6.2281  -6.2216   0.0002   0.0255   0.8332   0.8493
     1.6231   1.6992   2.6042   2.6104   3.7756   3.7947   4.3110   4.3230
     5.0867   5.1011   7.9539   7.9668   8.4475   8.5159

          k = 0.4545 0.3674 0.0000 (  3370 PWs)   bands (ev):

    -6.5714  -6.5658  -6.2137  -6.2072   0.0629   0.0878   0.8065   0.8179
     1.6431   1.7173   2.5736   2.5903   3.7771   3.8020   4.0360   4.0499
     5.1637   5.1816   7.9404   7.9654   8.4888   8.5584

          k = 0.4394 0.3936 0.0000 (  3370 PWs)   bands (ev):

    -6.5457  -6.5405  -6.1943  -6.1879   0.1495   0.1737   0.7685   0.7744
     1.6689   1.7401   2.5460   2.5740   3.7262   3.7428   3.7713   3.8018
     5.2276   5.2484   7.9049   7.9353   8.5638   8.6254

          k = 0.4242 0.4199 0.0000 (  3362 PWs)   bands (ev):

    -6.5154  -6.5100  -6.1710  -6.1652   0.2589   0.2822   0.7201   0.7204
     1.6981   1.7653   2.5297   2.5673   3.3960   3.4154   3.7540   3.7887
     5.2869   5.3095   7.8433   7.8720   8.6702   8.7150

          k = 0.4091 0.4461 0.0000 (  3370 PWs)   bands (ev):

    -6.4821  -6.4771  -6.1458  -6.1408   0.3896   0.4115   0.6593   0.6639
     1.7273   1.7893   2.5293   2.5738   3.0587   3.0808   3.7234   3.7602
     5.3486   5.3721   7.7580   7.7813   8.7968   8.8205

          k = 0.3939 0.4724 0.0000 (  3366 PWs)   bands (ev):

    -6.4479  -6.4433  -6.1203  -6.1158   0.5396   0.5596   0.5962   0.6046
     1.7513   1.8060   2.5460   2.5933   2.7299   2.7539   3.6804   3.7169
     5.4170   5.4403   7.6562   7.6731   8.9247   8.9309

          k = 0.3788 0.4986 0.0000 (  3340 PWs)   bands (ev):

    -6.4152  -6.4115  -6.0960  -6.0923   0.5371   0.5480   0.7062   0.7234
     1.7587   1.8020   2.4321   2.4552   2.5771   2.6222   3.6295   3.6627
     5.4911   5.5135   7.5478   7.5589   8.8123   8.9961

          k = 0.3636 0.5249 0.0000 (  3360 PWs)   bands (ev):

    -6.3882  -6.3854  -6.0766  -6.0743   0.4878   0.5003   0.8847   0.8978
     1.7208   1.7426   2.2099   2.2238   2.6163   2.6530   3.5790   3.6054
     5.5634   5.5846   7.4471   7.4537   8.7367   8.9290

          k = 0.3485 0.5511 0.0000 (  3364 PWs)   bands (ev):

    -6.3689  -6.3677  -6.0631  -6.0619   0.4545   0.4677   1.0619   1.0683
     1.6008   1.6076   2.1085   2.1088   2.6536   2.6750   3.5418   3.5569
     5.6197   5.6404   7.3733   7.3763   8.6954   8.8925

          k = 0.3333 0.5773 0.0000 (  3372 PWs)   bands (ev):

    -6.3615  -6.3615  -6.0579  -6.0579   0.4424   0.4558   1.1653   1.1653
     1.4939   1.5163   2.0862   2.0862   2.6765   2.6765   3.5320   3.5320
     5.6421   5.6626   7.3460   7.3460   8.6829   8.8817

          k = 0.3188 0.5522 0.0000 (  3356 PWs)   bands (ev):

    -6.3692  -6.3678  -6.0632  -6.0616   0.4546   0.4679   1.0703   1.0802
     1.5981   1.6099   2.0928   2.1022   2.6528   2.6751   3.5430   3.5569
     5.6195   5.6400   7.3717   7.3759   8.6918   8.8894

          k = 0.3043 0.5271 0.0000 (  3364 PWs)   bands (ev):

    -6.3932  -6.3904  -6.0793  -6.0762   0.4928   0.5059   0.9196   0.9367
     1.7799   1.7830   2.1139   2.1398   2.6076   2.6494   3.5913   3.6140
     5.5542   5.5742   7.4453   7.4574   8.7124   8.9072

          k = 0.2899 0.5020 0.0000 (  3356 PWs)   bands (ev):

    -6.4347  -6.4305  -6.1064  -6.1011   0.5589   0.5716   0.7874   0.8085
     1.9375   1.9551   2.1681   2.2136   2.5497   2.6067   3.6713   3.6962
     5.4583   5.4768   7.5474   7.5749   8.7360   8.9273

          k = 0.2754 0.4769 0.0000 (  3376 PWs)   bands (ev):

    -6.4958  -6.4894  -6.1451  -6.1382   0.6535   0.6658   0.6878   0.7117
     2.0307   2.0369   2.3146   2.3557   2.4890   2.5574   3.7735   3.7946
     5.3468   5.3628   7.6514   7.7058   8.7525   8.7940

          k = 0.2609 0.4518 0.0000 (  3384 PWs)   bands (ev):

    -6.5746  -6.5666  -6.1949  -6.1856   0.6239   0.6506   0.7763   0.7886
     2.0519   2.0673   2.4335   2.5107   2.5213   2.5484   3.8894   3.9018
     5.2335   5.2464   7.7294   7.8283   8.6197   8.7130

          k = 0.2464 0.4267 0.0000 (  3384 PWs)   bands (ev):

    -6.6709  -6.6613  -6.2541  -6.2426   0.5952   0.6251   0.9263   0.9387
     2.0409   2.0743   2.3892   2.4738   2.7402   2.7573   4.0118   4.0119
     5.1286   5.1376   7.7549   7.9205   8.4704   8.5291

          k = 0.2319 0.4016 0.0000 (  3378 PWs)   bands (ev):

    -6.7823  -6.7715  -6.3218  -6.3076   0.5985   0.6325   1.1012   1.1141
     2.0126   2.0603   2.3605   2.4515   2.9574   2.9673   4.1196   4.1356
     5.0381   5.0435   7.7166   7.9559   8.3640   8.3803

          k = 0.2174 0.3765 0.0000 (  3370 PWs)   bands (ev):

    -6.9063  -6.8941  -6.3966  -6.3801   0.6280   0.6680   1.2974   1.3119
     1.9707   2.0293   2.3511   2.4475   3.1655   3.1703   4.2213   4.2563
     4.9647   4.9673   7.6353   7.9132   8.2919   8.3010

          k = 0.2029 0.3514 0.0000 (  3366 PWs)   bands (ev):

    -7.0397  -7.0260  -6.4764  -6.4584   0.6751   0.7239   1.5102   1.5279
     1.9213   1.9859   2.3646   2.4651   3.3569   3.3583   4.3136   4.3703
     4.9096   4.9112   7.5488   7.8271   8.2330   8.2724

          k = 0.1884 0.3263 0.0000 (  3356 PWs)   bands (ev):

    -7.1787  -7.1640  -6.5601  -6.5399   0.7275   0.7895   1.7320   1.7563
     1.8758   1.9399   2.4057   2.5075   3.5213   3.5214   4.3939   4.4749
     4.8752   4.8785   7.4852   7.7532   8.1772   8.2549

          k = 0.1739 0.3012 0.0000 (  3358 PWs)   bands (ev):

    -7.3209  -7.3050  -6.6453  -6.6233   0.7682   0.8491   1.8509   1.9068
     1.9511   1.9891   2.4823   2.5794   3.6448   3.6449   4.4602   4.5675
     4.8681   4.8768   7.4576   7.7170   8.1269   8.2354

          k = 0.1594 0.2761 0.0000 (  3356 PWs)   bands (ev):

    -7.4623  -7.4457  -6.7305  -6.7063   0.7793   0.8832   1.8654   1.9066
     2.1507   2.2142   2.6062   2.6877   3.7139   3.7146   4.5111   4.6464
     4.8972   4.9167   7.4677   7.7245   8.0907   8.2161

          k = 0.1449 0.2510 0.0000 (  3340 PWs)   bands (ev):

    -7.5999  -7.5830  -6.8133  -6.7875   0.7508   0.8769   1.9300   1.9557
     2.3192   2.4186   2.7829   2.8399   3.7244   3.7257   4.5461   4.7098
     4.9637   5.0012   7.5103   7.7713   8.0786   8.2034

          k = 0.1304 0.2259 0.0000 (  3332 PWs)   bands (ev):

    -7.7318  -7.7143  -6.8932  -6.8655   0.6869   0.8295   2.0409   2.0550
     2.4644   2.5987   2.9970   3.0323   3.6866   3.6882   4.5650   4.7564
     5.0557   5.1200   7.5784   7.8479   8.0978   8.1635

          k = 0.1159 0.2008 0.0000 (  3332 PWs)   bands (ev):

    -7.8556  -7.8376  -6.9682  -6.9390   0.6000   0.7533   2.1852   2.1924
     2.6021   2.7654   3.2243   3.2462   3.6180   3.6196   4.5681   4.7849
     5.1551   5.2553   7.6684   7.9429   8.1389   8.1491

          k = 0.1014 0.1757 0.0000 (  3338 PWs)   bands (ev):

    -7.9692  -7.9509  -7.0373  -7.0068   0.5030   0.6629   2.3487   2.3520
     2.7414   2.9308   3.4465   3.4606   3.5346   3.5360   4.5559   4.7937
     5.2462   5.3905   7.7809   8.0463   8.1381   8.2258

          k = 0.0870 0.1506 0.0000 (  3344 PWs)   bands (ev):

    -8.0711  -8.0523  -7.0991  -7.0674   0.4055   0.5693   2.5192   2.5206
     2.8849   3.1011   3.4482   3.4493   3.6512   3.6606   4.5293   4.7810
     5.3198   5.5136   7.9171   8.1533   8.1621   8.2581

          k = 0.0725 0.1255 0.0000 (  3333 PWs)   bands (ev):

    -8.1592  -8.1400  -7.1527  -7.1201   0.3145   0.4807   2.6862   2.6866
     3.0317   3.2782   3.3665   3.3674   3.8301   3.8363   4.4890   4.7448
     5.3733   5.6173   8.0738   8.2086   8.2640   8.2788

          k = 0.0580 0.1004 0.0000 (  3341 PWs)   bands (ev):

    -8.2331  -8.2135  -7.1980  -7.1646   0.2347   0.4024   2.8398   2.8400
     3.1782   3.2945   3.2953   3.4607   3.9778   3.9819   4.4366   4.6834
     5.4086   5.6986   8.2414   8.2717   8.3181   8.3775

          k = 0.0435 0.0753 0.0000 (  3345 PWs)   bands (ev):

    -8.2916  -8.2716  -7.2336  -7.1997   0.1695   0.3382   2.9711   2.9715
     3.2359   3.2366   3.3181   3.6463   4.0917   4.0945   4.3751   4.5960
     5.4298   5.7579   8.3419   8.3682   8.4055   8.4871

          k = 0.0290 0.0502 0.0000 (  3347 PWs)   bands (ev):

    -8.3339  -8.3137  -7.2597  -7.2246   0.1215   0.2906   3.0720   3.0725
     3.1926   3.1933   3.4415   3.8310   4.1718   4.1737   4.3110   4.4836
     5.4412   5.7974   8.4066   8.4176   8.5377   8.5401

          k = 0.0145 0.0251 0.0000 (  3341 PWs)   bands (ev):

    -8.3590  -8.3389  -7.2757  -7.2395   0.0920   0.2614   3.1356   3.1362
     3.1663   3.1668   3.5317   4.0088   4.2188   4.2206   4.2578   4.3500
     5.4466   5.8197   8.4524   8.4538   8.4850   8.4870

          k = 0.0000 0.0000 0.0000 (  3337 PWs)   bands (ev):

    -8.3677  -8.3472  -7.2809  -7.2445   0.0821   0.2516   3.1574   3.1574
     3.1579   3.1579   3.5661   4.1394   4.2343   4.2344   4.2360   4.2360
     5.4481   5.8270   8.4671   8.4672   8.4690   8.4691

          k = 0.0000 0.0000 0.0268 (  3343 PWs)   bands (ev):

    -8.3667  -8.3480  -7.2797  -7.2464   0.0882   0.2446   3.1574   3.1574
     3.1579   3.1579   3.5849   4.1123   4.2343   4.2343   4.2360   4.2360
     5.4682   5.8161   8.4672   8.4672   8.4690   8.4690

          k = 0.0000 0.0000 0.0536 (  3348 PWs)   bands (ev):

    -8.3645  -8.3505  -7.2760  -7.2502   0.1055   0.2250   3.1574   3.1574
     3.1578   3.1578   3.6393   4.0390   4.2345   4.2345   4.2357   4.2357
     5.5218   5.7841   8.4674   8.4674   8.4687   8.4687

          k = 0.0000 0.0000 0.0804 (  3360 PWs)   bands (ev):

    -8.3614  -8.3538  -7.2706  -7.2564   0.1319   0.1964   3.1575   3.1575
     3.1577   3.1577   3.7231   3.9375   4.2347   4.2348   4.2353   4.2354
     5.5929   5.7331   8.4677   8.4677   8.4683   8.4684

          k = 0.0000 0.0000 0.1072 (  3354 PWs)   bands (ev):

    -8.3576  -8.3576  -7.2633  -7.2633   0.1636   0.1636   3.1576   3.1576
     3.1576   3.1576   3.8268   3.8268   4.2351   4.2351   4.2352   4.2352
     5.6670   5.6670   8.4680   8.4680   8.4680   8.4681

          k = 0.0250 0.0144 0.1072 (  3364 PWs)   bands (ev):

    -8.3492  -8.3492  -7.2584  -7.2584   0.1733   0.1733   3.1360   3.1360
     3.1664   3.1664   3.7712   3.7712   4.2199   4.2199   4.2768   4.2768
     5.6627   5.6627   8.4532   8.4532   8.4856   8.4856

          k = 0.0500 0.0289 0.1072 (  3346 PWs)   bands (ev):

    -8.3239  -8.3239  -7.2426  -7.2426   0.2025   0.2025   3.0728   3.0728
     3.1928   3.1928   3.6450   3.6450   4.1755   4.1755   4.3607   4.3607
     5.6490   5.6490   8.4130   8.4130   8.5372   8.5372

          k = 0.0750 0.0433 0.1072 (  3336 PWs)   bands (ev):

    -8.2820  -8.2820  -7.2170  -7.2170   0.2499   0.2499   2.9721   2.9721
     3.2362   3.2362   3.4898   3.4898   4.1051   4.1051   4.4422   4.4422
     5.6233   5.6233   8.3555   8.3555   8.4528   8.4528

          k = 0.1000 0.0577 0.1072 (  3340 PWs)   bands (ev):

    -8.2244  -8.2244  -7.1819  -7.1819   0.3138   0.3139   2.8405   2.8405
     3.2958   3.2958   3.3206   3.3206   4.0134   4.0134   4.5023   4.5023
     5.5817   5.5818   8.2708   8.2708   8.3515   8.3515

          k = 0.1250 0.0722 0.1072 (  3344 PWs)   bands (ev):

    -8.1516  -8.1516  -7.1375  -7.1375   0.3918   0.3918   2.6855   2.6855
     3.1429   3.1429   3.3706   3.3706   3.9056   3.9056   4.5323   4.5323
     5.5203   5.5203   8.1446   8.1446   8.3098   8.3098

          k = 0.1500 0.0866 0.1072 (  3348 PWs)   bands (ev):

    -8.0643  -8.0643  -7.0847  -7.0847   0.4799   0.4799   2.5156   2.5156
     2.9590   2.9590   3.4590   3.4590   3.7868   3.7868   4.5291   4.5291
     5.4362   5.4362   8.0206   8.0206   8.3112   8.3112

          k = 0.1750 0.1010 0.1072 (  3350 PWs)   bands (ev):

    -7.9638  -7.9637  -7.0241  -7.0241   0.5721   0.5721   2.3397   2.3397
     2.7698   2.7698   3.5592   3.5592   3.6620   3.6620   4.4942   4.4942
     5.3296   5.3296   7.9207   7.9207   8.2551   8.2551

          k = 0.2000 0.1155 0.1072 (  3360 PWs)   bands (ev):

    -7.8516  -7.8516  -6.9567  -6.9567   0.6598   0.6598   2.1676   2.1676
     2.5762   2.5762   3.5350   3.5350   3.6690   3.6690   4.4332   4.4332
     5.2049   5.2049   7.8531   7.8531   8.1692   8.1692

          k = 0.2250 0.1299 0.1072 (  3354 PWs)   bands (ev):

    -7.7292  -7.7292  -6.8836  -6.8836   0.7306   0.7306   2.0114   2.0114
     2.3793   2.3793   3.4094   3.4094   3.7855   3.7855   4.3546   4.3546
     5.0709   5.0710   7.8207   7.8207   8.0898   8.0898

          k = 0.2500 0.1443 0.1072 (  3348 PWs)   bands (ev):

    -7.5989  -7.5989  -6.8060  -6.8060   0.7679   0.7679   1.8843   1.8843
     2.1812   2.1812   3.2879   3.2879   3.9058   3.9058   4.2668   4.2668
     4.9397   4.9397   7.8212   7.8212   8.0204   8.0204

          k = 0.2750 0.1588 0.1072 (  3354 PWs)   bands (ev):

    -7.4636  -7.4636  -6.7260  -6.7260   0.7561   0.7561   1.7966   1.7966
     1.9859   1.9859   3.1728   3.1728   4.0263   4.0263   4.1776   4.1776
     4.8247   4.8248   7.8499   7.8499   7.9638   7.9638

          k = 0.3000 0.1732 0.1072 (  3358 PWs)   bands (ev):

    -7.3256  -7.3256  -6.6453  -6.6453   0.6918   0.6918   1.7307   1.7307
     1.8136   1.8136   3.0659   3.0659   4.0927   4.0927   4.1435   4.1435
     4.7384   4.7384   7.9014   7.9014   7.9219   7.9219

          k = 0.3250 0.1876 0.1072 (  3370 PWs)   bands (ev):

    -7.1888  -7.1888  -6.5658  -6.5658   0.5875   0.5875   1.5848   1.5848
     1.7550   1.7550   2.9688   2.9688   4.0160   4.0160   4.2537   4.2537
     4.6892   4.6893   7.8957   7.8957   7.9704   7.9704

          k = 0.3500 0.2021 0.1072 (  3382 PWs)   bands (ev):

    -7.0566  -7.0566  -6.4900  -6.4900   0.4626   0.4626   1.4151   1.4151
     1.7400   1.7400   2.8825   2.8825   3.9496   3.9496   4.3539   4.3539
     4.6803   4.6803   7.8848   7.8848   8.0515   8.0515

          k = 0.3750 0.2165 0.1072 (  3370 PWs)   bands (ev):

    -6.9331  -6.9331  -6.4196  -6.4196   0.3336   0.3336   1.2588   1.2588
     1.7255   1.7255   2.8083   2.8083   3.8945   3.8945   4.4412   4.4412
     4.7073   4.7073   7.8873   7.8874   8.1402   8.1402

          k = 0.4000 0.2309 0.1072 (  3376 PWs)   bands (ev):

    -6.8232  -6.8232  -6.3581  -6.3581   0.2125   0.2125   1.1229   1.1229
     1.7061   1.7061   2.7466   2.7466   3.8506   3.8506   4.5138   4.5138
     4.7597   4.7597   7.8996   7.8996   8.2307   8.2307

          k = 0.4250 0.2454 0.1072 (  3378 PWs)   bands (ev):

    -6.7313  -6.7313  -6.3073  -6.3073   0.1087   0.1087   1.0123   1.0123
     1.6843   1.6843   2.6980   2.6980   3.8174   3.8174   4.5706   4.5706
     4.8232   4.8232   7.9171   7.9171   8.3167   8.3167

          k = 0.4500 0.2598 0.1072 (  3384 PWs)   bands (ev):

    -6.6622  -6.6622  -6.2692  -6.2692   0.0292   0.0292   0.9304   0.9304
     1.6644   1.6644   2.6630   2.6630   3.7942   3.7942   4.6111   4.6111
     4.8824   4.8824   7.9346   7.9346   8.3896   8.3896

          k = 0.4750 0.2742 0.1072 (  3386 PWs)   bands (ev):

    -6.6191  -6.6191  -6.2455  -6.2455  -0.0207  -0.0207   0.8802   0.8802
     1.6506   1.6506   2.6419   2.6419   3.7807   3.7807   4.6353   4.6353
     4.9240   4.9240   7.9474   7.9474   8.4395   8.4395

          k = 0.5000 0.2887 0.1072 (  3372 PWs)   bands (ev):

    -6.6042  -6.6042  -6.2371  -6.2371  -0.0377  -0.0377   0.8633   0.8633
     1.6457   1.6457   2.6349   2.6349   3.7762   3.7762   4.6433   4.6433
     4.9390   4.9390   7.9521   7.9521   8.4575   8.4575

          k = 0.4848 0.3149 0.1072 (  3372 PWs)   bands (ev):

    -6.6000  -6.6000  -6.2341  -6.2341  -0.0250  -0.0250   0.8577   0.8577
     1.6498   1.6498   2.6273   2.6274   3.7788   3.7788   4.5375   4.5375
     5.0006   5.0007   7.9554   7.9554   8.4627   8.4627

          k = 0.4697 0.3412 0.1072 (  3368 PWs)   bands (ev):

    -6.5880  -6.5880  -6.2249  -6.2249   0.0128   0.0128   0.8407   0.8407
     1.6616   1.6616   2.6076   2.6076   3.7848   3.7848   4.3171   4.3171
     5.0940   5.0940   7.9601   7.9601   8.4819   8.4819

          k = 0.4545 0.3674 0.1072 (  3366 PWs)   bands (ev):

    -6.5689  -6.5689  -6.2100  -6.2099   0.0752   0.0752   0.8118   0.8118
     1.6803   1.6803   2.5827   2.5827   3.7889   3.7889   4.0431   4.0431
     5.1728   5.1728   7.9526   7.9526   8.5233   8.5233

          k = 0.4394 0.3936 0.1072 (  3358 PWs)   bands (ev):

    -6.5432  -6.5432  -6.1905  -6.1905   0.1615   0.1615   0.7712   0.7712
     1.7041   1.7041   2.5611   2.5611   3.7342   3.7342   3.7862   3.7862
     5.2383   5.2383   7.9200   7.9200   8.5936   8.5936

          k = 0.4242 0.4199 0.1072 (  3362 PWs)   bands (ev):

    -6.5130  -6.5130  -6.1677  -6.1677   0.2705   0.2705   0.7201   0.7201
     1.7308   1.7308   2.5500   2.5500   3.4057   3.4057   3.7705   3.7705
     5.2983   5.2983   7.8578   7.8578   8.6905   8.6905

          k = 0.4091 0.4461 0.1072 (  3354 PWs)   bands (ev):

    -6.4796  -6.4796  -6.1427  -6.1427   0.4005   0.4005   0.6617   0.6617
     1.7571   1.7571   2.5532   2.5532   3.0701   3.0701   3.7408   3.7408
     5.3605   5.3605   7.7700   7.7700   8.8051   8.8051

          k = 0.3939 0.4724 0.1072 (  3366 PWs)   bands (ev):

    -6.4458  -6.4458  -6.1178  -6.1178   0.5491   0.5491   0.6009   0.6009
     1.7773   1.7773   2.5700   2.5700   2.7437   2.7437   3.6974   3.6974
     5.4287   5.4287   7.6648   7.6649   8.9194   8.9194

          k = 0.3788 0.4986 0.1072 (  3374 PWs)   bands (ev):

    -6.4138  -6.4138  -6.0951  -6.0951   0.5423   0.5423   0.7151   0.7151
     1.7791   1.7791   2.4399   2.4399   2.6055   2.6055   3.6445   3.6445
     5.5021   5.5021   7.5534   7.5534   8.8954   8.8954

          k = 0.3636 0.5249 0.1072 (  3366 PWs)   bands (ev):

    -6.3866  -6.3866  -6.0759  -6.0759   0.4939   0.4939   0.8915   0.8915
     1.7314   1.7314   2.2139   2.2139   2.6392   2.6392   3.5903   3.5903
     5.5739   5.5740   7.4505   7.4505   8.8280   8.8280

          k = 0.3485 0.5511 0.1072 (  3362 PWs)   bands (ev):

    -6.3683  -6.3683  -6.0624  -6.0624   0.4611   0.4611   1.0655   1.0655
     1.6043   1.6043   2.1054   2.1054   2.6690   2.6690   3.5472   3.5472
     5.6300   5.6300   7.3747   7.3747   8.7902   8.7902

          k = 0.3333 0.5773 0.1072 (  3366 PWs)   bands (ev):

    -6.3619  -6.3619  -6.0573  -6.0573   0.4491   0.4491   1.1658   1.1658
     1.5051   1.5051   2.0830   2.0830   2.6813   2.6813   3.5299   3.5299
     5.6522   5.6522   7.3459   7.3459   8.7790   8.7790

          k = 0.3188 0.5522 0.1072 (  3370 PWs)   bands (ev):

    -6.3687  -6.3687  -6.0627  -6.0627   0.4612   0.4612   1.0756   1.0756
     1.6042   1.6042   2.0941   2.0941   2.6687   2.6687   3.5478   3.5478
     5.6295   5.6295   7.3737   7.3737   8.7868   8.7868

          k = 0.3043 0.5271 0.1072 (  3360 PWs)   bands (ev):

    -6.3916  -6.3916  -6.0778  -6.0778   0.4992   0.4992   0.9284   0.9284
     1.7818   1.7818   2.1233   2.1233   2.6331   2.6331   3.6009   3.6009
     5.5642   5.5642   7.4514   7.4514   8.8043   8.8043

          k = 0.2899 0.5020 0.1072 (  3368 PWs)   bands (ev):

    -6.4327  -6.4327  -6.1042  -6.1042   0.5650   0.5650   0.7982   0.7982
     1.9455   1.9455   2.1877   2.1877   2.5831   2.5831   3.6823   3.6823
     5.4675   5.4675   7.5613   7.5613   8.8194   8.8194

          k = 0.2754 0.4769 0.1072 (  3372 PWs)   bands (ev):

    -6.4924  -6.4924  -6.1416  -6.1416   0.6587   0.6587   0.7008   0.7008
     2.0320   2.0320   2.3316   2.3316   2.5294   2.5294   3.7828   3.7828
     5.3548   5.3548   7.6789   7.6790   8.7905   8.7905

          k = 0.2609 0.4518 0.1072 (  3376 PWs)   bands (ev):

    -6.5704  -6.5704  -6.1901  -6.1901   0.6370   0.6370   0.7828   0.7828
     2.0566   2.0566   2.4720   2.4720   2.5387   2.5387   3.8944   3.8944
     5.2401   5.2401   7.7790   7.7790   8.6460   8.6460

          k = 0.2464 0.4267 0.1072 (  3380 PWs)   bands (ev):

    -6.6660  -6.6660  -6.2482  -6.2482   0.6100   0.6100   0.9327   0.9327
     2.0534   2.0534   2.4365   2.4365   2.7486   2.7486   4.0107   4.0107
     5.1333   5.1333   7.8356   7.8356   8.4879   8.4879

          k = 0.2319 0.4016 0.1072 (  3378 PWs)   bands (ev):

    -6.7769  -6.7769  -6.3147  -6.3147   0.6154   0.6154   1.1078   1.1078
     2.0314   2.0314   2.4120   2.4120   2.9620   2.9621   4.1264   4.1264
     5.0409   5.0409   7.8275   7.8275   8.3685   8.3685

          k = 0.2174 0.3765 0.1072 (  3372 PWs)   bands (ev):

    -6.9002  -6.9002  -6.3883  -6.3883   0.6478   0.6478   1.3047   1.3047
     1.9946   1.9946   2.4056   2.4056   3.1676   3.1676   4.2375   4.2375
     4.9661   4.9661   7.7614   7.7614   8.2961   8.2961

          k = 0.2029 0.3514 0.1072 (  3386 PWs)   bands (ev):

    -7.0332  -7.0332  -6.4680  -6.4680   0.6993   0.6993   1.5187   1.5187
     1.9489   1.9489   2.4206   2.4206   3.3574   3.3574   4.3404   4.3404
     4.9104   4.9104   7.6775   7.6775   8.2469   8.2469

          k = 0.1884 0.3263 0.1072 (  3372 PWs)   bands (ev):

    -7.1717  -7.1717  -6.5503  -6.5503   0.7581   0.7581   1.7421   1.7421
     1.9061   1.9061   2.4613   2.4613   3.5212   3.5212   4.4323   4.4323
     4.8769   4.8769   7.6123   7.6123   8.2020   8.2020

          k = 0.1739 0.3012 0.1072 (  3368 PWs)   bands (ev):

    -7.3131  -7.3131  -6.6346  -6.6346   0.8079   0.8079   1.8683   1.8683
     1.9790   1.9790   2.5338   2.5338   3.6448   3.6448   4.5105   4.5105
     4.8733   4.8733   7.5830   7.5831   8.1590   8.1590

          k = 0.1594 0.2761 0.1072 (  3362 PWs)   bands (ev):

    -7.4542  -7.4542  -6.7184  -6.7184   0.8298   0.8298   1.8806   1.8806
     2.1895   2.1895   2.6475   2.6475   3.7142   3.7142   4.5732   4.5732
     4.9095   4.9095   7.5933   7.5933   8.1245   8.1245

          k = 0.1449 0.2510 0.1072 (  3354 PWs)   bands (ev):

    -7.5918  -7.5918  -6.8005  -6.8005   0.8115   0.8115   1.9395   1.9395
     2.3767   2.3767   2.8102   2.8102   3.7249   3.7249   4.6191   4.6191
     4.9879   4.9879   7.6378   7.6378   8.1080   8.1080

          k = 0.1304 0.2259 0.1072 (  3350 PWs)   bands (ev):

    -7.7236  -7.7236  -6.8794  -6.8794   0.7551   0.7551   2.0459   2.0459
     2.5391   2.5391   3.0133   3.0133   3.6873   3.6873   4.6479   4.6479
     5.0969   5.0969   7.7074   7.7075   8.1178   8.1178

          k = 0.1159 0.2008 0.1072 (  3352 PWs)   bands (ev):

    -7.8470  -7.8470  -6.9539  -6.9539   0.6732   0.6732   2.1875   2.1875
     2.6907   2.6907   3.2343   3.2343   3.6187   3.6187   4.6595   4.6595
     5.2183   5.2183   7.7942   7.7942   8.1560   8.1560

          k = 0.1014 0.1757 0.1072 (  3350 PWs)   bands (ev):

    -7.9603  -7.9603  -7.0222  -7.0222   0.5794   0.5794   2.3496   2.3496
     2.8428   2.8428   3.4529   3.4529   3.5354   3.5354   4.6535   4.6535
     5.3359   5.3359   7.8954   7.8954   8.2060   8.2060

          k = 0.0870 0.1506 0.1072 (  3352 PWs)   bands (ev):

    -8.0618  -8.0618  -7.0834  -7.0834   0.4839   0.4839   2.5195   2.5195
     2.9998   2.9998   3.4488   3.4488   3.6556   3.6556   4.6297   4.6297
     5.4385   5.4385   8.0113   8.0113   8.2355   8.2355

          k = 0.0725 0.1255 0.1072 (  3342 PWs)   bands (ev):

    -8.1497  -8.1497  -7.1367  -7.1367   0.3942   0.3942   2.6861   2.6861
     3.1620   3.1620   3.3669   3.3669   3.8331   3.8331   4.5880   4.5880
     5.5207   5.5207   8.1394   8.1394   8.2747   8.2747

          k = 0.0580 0.1004 0.1072 (  3346 PWs)   bands (ev):

    -8.2234  -8.2234  -7.1814  -7.1814   0.3152   0.3152   2.8397   2.8398
     3.2948   3.2948   3.3271   3.3271   3.9798   3.9798   4.5282   4.5282
     5.5815   5.5815   8.2626   8.2626   8.3428   8.3428

          k = 0.0435 0.0753 0.1072 (  3334 PWs)   bands (ev):

    -8.2813  -8.2813  -7.2167  -7.2167   0.2506   0.2506   2.9713   2.9713
     3.2363   3.2363   3.4905   3.4905   4.0931   4.0931   4.4519   4.4519
     5.6231   5.6231   8.3497   8.3497   8.4523   8.4523

          k = 0.0290 0.0502 0.1072 (  3352 PWs)   bands (ev):

    -8.3236  -8.3236  -7.2426  -7.2426   0.2028   0.2028   3.0721   3.0722
     3.1929   3.1929   3.6443   3.6443   4.1727   4.1727   4.3634   4.3634
     5.6489   5.6489   8.4115   8.4115   8.5388   8.5388

          k = 0.0145 0.0251 0.1072 (  3362 PWs)   bands (ev):

    -8.3491  -8.3491  -7.2583  -7.2583   0.1734   0.1734   3.1358   3.1358
     3.1665   3.1665   3.7708   3.7708   4.2196   4.2196   4.2773   4.2773
     5.6627   5.6627   8.4531   8.4531   8.4859   8.4859

          k = 0.0000 0.0000 0.1072 (  3354 PWs)   bands (ev):

    -8.3576  -8.3576  -7.2633  -7.2633   0.1636   0.1636   3.1576   3.1576
     3.1576   3.1576   3.8268   3.8268   4.2351   4.2351   4.2352   4.2352
     5.6670   5.6670   8.4680   8.4680   8.4680   8.4681

     Writing output data file MoS2-2H.save
 
     init_run     :      0.06s CPU      0.12s WALL (       1 calls)
     electrons    :     51.55s CPU     51.92s WALL (       1 calls)

     Called by init_run:
     wfcinit      :      0.00s CPU      0.01s WALL (       1 calls)
     potinit      :      0.02s CPU      0.03s WALL (       1 calls)

     Called by electrons:
     c_bands      :     51.55s CPU     51.91s WALL (       1 calls)
     v_of_rho     :      0.00s CPU      0.01s WALL (       1 calls)
     v_h          :      0.00s CPU      0.00s WALL (       1 calls)
     v_xc         :      0.00s CPU      0.01s WALL (       1 calls)

     Called by c_bands:
     init_us_2    :      0.00s CPU      0.01s WALL (     113 calls)
     cegterg      :     47.37s CPU     47.60s WALL (     265 calls)

     Called by sum_band:

     Called by *egterg:
     h_psi        :     13.55s CPU     14.29s WALL (    4948 calls)
     g_psi        :      0.02s CPU      0.04s WALL (    4570 calls)
     cdiaghg      :     29.45s CPU     29.86s WALL (    4683 calls)
     cegterg:over :      4.07s CPU      2.94s WALL (    4570 calls)
     cegterg:upda :      1.76s CPU      1.95s WALL (    4570 calls)
     cegterg:last :      0.87s CPU      0.77s WALL (     945 calls)
     cdiaghg:chol :      1.75s CPU      1.06s WALL (    4683 calls)
     cdiaghg:inve :      0.01s CPU      0.27s WALL (    4683 calls)
     cdiaghg:para :      0.48s CPU      1.67s WALL (    9366 calls)

     Called by h_psi:
     h_psi:vloc   :     12.54s CPU     13.29s WALL (    4948 calls)
     h_psi:vnl    :      0.99s CPU      0.98s WALL (    4948 calls)
     add_vuspsi   :      0.32s CPU      0.36s WALL (    4948 calls)

     General routines
     calbec       :      0.66s CPU      0.61s WALL (    4948 calls)
     fft          :      0.01s CPU      0.01s WALL (      10 calls)
     fftw         :     12.27s CPU     12.96s WALL (  136536 calls)
     davcio       :      0.00s CPU      0.08s WALL (     226 calls)
 
     Parallel routines
     fft_scatter  :      6.98s CPU      7.33s WALL (  136546 calls)
 
     PWSCF        :  0m53.82s CPU     1m 0.94s WALL

 
   This run was terminated on:  18:47:44  27May2017            

=------------------------------------------------------------------------------=
   JOB DONE.
=------------------------------------------------------------------------------=
