<?xml version="1.0" encoding="ISO-8859-1"?>
<modeling>
 <generator>
  <i name="program" type="string">vasp </i>
  <i name="version" type="string">5.4.4.18Apr17-6-g9f103f2a35  </i>
  <i name="subversion" type="string">(build Jan 06 2022 15:41:42) complex            parallel </i>
  <i name="platform" type="string">LinuxIFC </i>
  <i name="date" type="string">2022 02 14 </i>
  <i name="time" type="string">19:31:59 </i>
 </generator>
 <incar>
  <i type="string" name="SYSTEM"> MoS2</i>
  <i type="string" name="PREC">normal</i>
  <i type="string" name="ALGO"> GW0</i>
  <i type="int" name="NELM">     1</i>
  <i name="EDIFF">      0.00000010</i>
  <i name="ENCUT">    400.00000000</i>
  <i type="int" name="NBANDS">    65</i>
  <i type="int" name="NEDOS">  3000</i>
  <i type="int" name="ISMEAR">     0</i>
  <i name="SIGMA">      0.05000000</i>
  <i type="logical" name="LASPH"> T  </i>
  <i type="int" name="NOMEGA">   100</i>
  <v type="int" name="KPOINT_BSE">    -1     0     0     0</v>
  <i type="logical" name="LSPECTRAL"> T  </i>
  <i type="int" name="MAXMEM"> 12000</i>
  <i type="int" name="NELM">     1</i>
  <i type="logical" name="LASPH"> T  </i>
  <i type="logical" name="LWANNIER90"> T  </i>
 </incar>
 <structure name="primitive_cell" >
  <crystal>
   <varray name="basis" >
    <v>       1.59265383      -2.75855735       0.00000000 </v>
    <v>       1.59265383       2.75855735       0.00000000 </v>
    <v>       0.00000000       0.00000000      13.98103146 </v>
   </varray>
   <i name="volume">    122.84928053 </i>
   <varray name="rec_basis" >
    <v>       0.31394142      -0.18125416       0.00000000 </v>
    <v>       0.31394142       0.18125416       0.00000000 </v>
    <v>       0.00000000       0.00000000       0.07152548 </v>
   </varray>
  </crystal>
  <varray name="positions" >
   <v>       0.33333333      -0.33333333       0.25000000 </v>
   <v>      -0.33333333       0.33333333       0.36189349 </v>
   <v>      -0.33333333       0.33333333       0.13810650 </v>
   <v>       0.33333333      -0.33333333      -0.13810647 </v>
   <v>       0.33333333      -0.33333333      -0.36189349 </v>
   <v>      -0.33333333       0.33333333      -0.25000000 </v>
  </varray>
 </structure>
 <varray name="primitive_index" >
  <v type="int" >        1 </v>
  <v type="int" >        4 </v>
  <v type="int" >        5 </v>
  <v type="int" >        6 </v>
  <v type="int" >        3 </v>
  <v type="int" >        2 </v>
 </varray>
 <kpoints>
  <generation param="Gamma">
   <v type="int" name="divisions">      12       12        1 </v>
   <v name="usershift">      0.00000000       0.00000000       0.00000000 </v>
   <v name="genvec1">      0.08333333      -0.00000000       0.00000000 </v>
   <v name="genvec2">     -0.00000000       0.08333333       0.00000000 </v>
   <v name="genvec3">      0.00000000       0.00000000       1.00000000 </v>
   <v name="shift">      0.00000000       0.00000000       0.00000000 </v>
  </generation>
  <varray name="kpointlist" >
   <v>       0.00000000       0.00000000       0.00000000 </v>
   <v>       0.08333333      -0.00000000       0.00000000 </v>
   <v>       0.16666667      -0.00000000       0.00000000 </v>
   <v>       0.25000000      -0.00000000       0.00000000 </v>
   <v>       0.33333333      -0.00000000       0.00000000 </v>
   <v>       0.41666667      -0.00000000       0.00000000 </v>
   <v>       0.50000000      -0.00000000       0.00000000 </v>
   <v>       0.08333333       0.08333333       0.00000000 </v>
   <v>       0.16666667       0.08333333       0.00000000 </v>
   <v>       0.25000000       0.08333333       0.00000000 </v>
   <v>       0.33333333       0.08333333       0.00000000 </v>
   <v>       0.41666667       0.08333333       0.00000000 </v>
   <v>       0.16666667       0.16666667       0.00000000 </v>
   <v>       0.25000000       0.16666667       0.00000000 </v>
   <v>       0.33333333       0.16666667       0.00000000 </v>
   <v>       0.41666667       0.16666667       0.00000000 </v>
   <v>       0.25000000       0.25000000       0.00000000 </v>
   <v>       0.33333333       0.25000000       0.00000000 </v>
   <v>       0.33333333       0.33333333       0.00000000 </v>
  </varray>
  <varray name="weights" >
   <v>       0.00694444 </v>
   <v>       0.04166667 </v>
   <v>       0.04166667 </v>
   <v>       0.04166667 </v>
   <v>       0.04166667 </v>
   <v>       0.04166667 </v>
   <v>       0.02083333 </v>
   <v>       0.04166667 </v>
   <v>       0.08333333 </v>
   <v>       0.08333333 </v>
   <v>       0.08333333 </v>
   <v>       0.08333333 </v>
   <v>       0.04166667 </v>
   <v>       0.08333333 </v>
   <v>       0.08333333 </v>
   <v>       0.04166667 </v>
   <v>       0.04166667 </v>
   <v>       0.08333333 </v>
   <v>       0.01388889 </v>
  </varray>
 </kpoints>
 <parameters>
  <separator name="general" >
   <i type="string" name="SYSTEM">MoS2</i>
   <i type="logical" name="LCOMPAT"> F  </i>
  </separator>
  <separator name="electronic" >
   <i type="string" name="PREC">normal</i>
   <i name="ENMAX">    400.00000000</i>
   <i name="ENAUG">    964.74100000</i>
   <i name="EDIFF">      0.00000010</i>
   <i type="int" name="IALGO">    38</i>
   <i type="int" name="IWAVPR">    10</i>
   <i type="int" name="NBANDS">    65</i>
   <i name="NELECT">     52.00000000</i>
   <i type="int" name="TURBO">     0</i>
   <i type="int" name="IRESTART">     0</i>
   <i type="int" name="NREBOOT">     0</i>
   <i type="int" name="NMIN">     0</i>
   <i name="EREF">      0.00000000</i>
   <separator name="electronic smearing" >
    <i type="int" name="ISMEAR">     0</i>
    <i name="SIGMA">      0.05000000</i>
    <i name="KSPACING">      0.50000000</i>
    <i type="logical" name="KGAMMA"> T  </i>
   </separator>
   <separator name="electronic projectors" >
    <i type="logical" name="LREAL"> F  </i>
    <v name="ROPT">      0.00000000      0.00000000</v>
    <i type="int" name="LMAXPAW">  -100</i>
    <i type="int" name="LMAXMIX">     2</i>
    <i type="logical" name="NLSPLINE"> F  </i>
   </separator>
   <separator name="electronic startup" >
    <i type="int" name="ISTART">     1</i>
    <i type="int" name="ICHARG">     0</i>
    <i type="int" name="INIWAV">     1</i>
   </separator>
   <separator name="electronic spin" >
    <i type="int" name="ISPIN">     1</i>
    <i type="logical" name="LNONCOLLINEAR"> F  </i>
    <v name="MAGMOM">      1.00000000      1.00000000      1.00000000      1.00000000      1.00000000      1.00000000</v>
    <i name="NUPDOWN">     -1.00000000</i>
    <i type="logical" name="LSORBIT"> F  </i>
    <v name="SAXIS">      0.00000000      0.00000000      1.00000000</v>
    <i type="logical" name="LSPIRAL"> F  </i>
    <v name="QSPIRAL">      0.00000000      0.00000000      0.00000000</v>
    <i type="logical" name="LZEROZ"> F  </i>
   </separator>
   <separator name="electronic exchange-correlation" >
    <i type="logical" name="LASPH"> T  </i>
    <i type="logical" name="LMETAGGA"> F  </i>
   </separator>
   <separator name="electronic convergence" >
    <i type="int" name="NELM">     1</i>
    <i type="int" name="NELMDL">     0</i>
    <i type="int" name="NELMIN">     2</i>
    <i name="ENINI">    400.00000000</i>
    <separator name="electronic convergence detail" >
     <i type="logical" name="LDIAG"> T  </i>
     <i type="logical" name="LSUBROT"> F  </i>
     <i name="WEIMIN">      0.00000000</i>
     <i name="EBREAK">      0.00000000</i>
     <i name="DEPER">      0.30000000</i>
     <i type="int" name="NRMM">     4</i>
     <i name="TIME">      0.40000000</i>
    </separator>
   </separator>
   <separator name="electronic mixer" >
    <i name="AMIX">      0.40000000</i>
    <i name="BMIX">      1.00000000</i>
    <i name="AMIN">      0.10000000</i>
    <i name="AMIX_MAG">      1.60000000</i>
    <i name="BMIX_MAG">      1.00000000</i>
    <separator name="electronic mixer details" >
     <i type="int" name="IMIX">     1</i>
     <i type="logical" name="MIXFIRST"> F  </i>
     <i type="int" name="MAXMIX">   -45</i>
     <i name="WC">    100.00000000</i>
     <i type="int" name="INIMIX">     1</i>
     <i type="int" name="MIXPRE">     1</i>
     <i type="int" name="MREMOVE">     5</i>
    </separator>
   </separator>
   <separator name="electronic dipolcorrection" >
    <i type="logical" name="LDIPOL"> F  </i>
    <i type="logical" name="LMONO"> F  </i>
    <i type="int" name="IDIPOL">     0</i>
    <i name="EPSILON">      1.00000000</i>
    <v name="DIPOL">   -100.00000000   -100.00000000   -100.00000000</v>
    <i name="EFIELD">      0.00000000</i>
   </separator>
  </separator>
  <separator name="grids" >
   <i type="int" name="NGX">    16</i>
   <i type="int" name="NGY">    16</i>
   <i type="int" name="NGZ">    70</i>
   <i type="int" name="NGXF">    32</i>
   <i type="int" name="NGYF">    32</i>
   <i type="int" name="NGZF">   140</i>
   <i type="logical" name="ADDGRID"> F  </i>
  </separator>
  <separator name="ionic" >
   <i type="int" name="NSW">     0</i>
   <i type="int" name="IBRION">    -1</i>
   <i type="int" name="MDALGO">     0</i>
   <i type="int" name="ISIF">     0</i>
   <i name="PSTRESS">      0.00000000</i>
   <i name="EDIFFG">      0.00000100</i>
   <i type="int" name="NFREE">     0</i>
   <i name="POTIM">      0.50000000</i>
   <i name="SMASS">     -3.00000000</i>
   <i name="SCALEE">      1.00000000</i>
  </separator>
  <separator name="ionic md" >
   <i name="TEBEG">      0.00010000</i>
   <i name="TEEND">      0.00010000</i>
   <i type="int" name="NBLOCK">     1</i>
   <i type="int" name="KBLOCK">     1</i>
   <i type="int" name="NPACO">   256</i>
   <i name="APACO">     16.00000000</i>
  </separator>
  <separator name="symmetry" >
   <i type="int" name="ISYM">     3</i>
   <i name="SYMPREC">      0.00001000</i>
  </separator>
  <separator name="dos" >
   <i type="int" name="LORBIT">     0</i>
   <v name="RWIGS">     -1.00000000     -1.00000000</v>
   <i type="int" name="NEDOS">  3000</i>
   <i name="EMIN">     10.00000000</i>
   <i name="EMAX">    -10.00000000</i>
   <i name="EFERMI">      0.00000000</i>
  </separator>
  <separator name="writing" >
   <i type="int" name="NWRITE">     2</i>
   <i type="logical" name="LWAVE"> T  </i>
   <i type="logical" name="LDOWNSAMPLE"> F  </i>
   <i type="logical" name="LCHARG"> T  </i>
   <i type="logical" name="LPARD"> F  </i>
   <i type="logical" name="LVTOT"> F  </i>
   <i type="logical" name="LVHAR"> F  </i>
   <i type="logical" name="LELF"> F  </i>
   <i type="logical" name="LOPTICS"> F  </i>
   <v name="STM">      0.00000000      0.00000000      0.00000000      0.00000000      0.00000000      0.00000000      0.00000000</v>
  </separator>
  <separator name="performance" >
   <i type="int" name="NPAR">     5</i>
   <i type="int" name="NSIM">     4</i>
   <i type="int" name="NBLK">    -1</i>
   <i type="logical" name="LPLANE"> T  </i>
   <i type="logical" name="LSCALAPACK"> T  </i>
   <i type="logical" name="LSCAAWARE"> F  </i>
   <i type="logical" name="LSCALU"> F  </i>
   <i type="logical" name="LASYNC"> F  </i>
   <i type="logical" name="LORBITALREAL"> F  </i>
  </separator>
  <separator name="miscellaneous" >
   <i type="int" name="IDIOT">     3</i>
   <i type="int" name="ISPECIAL">     0</i>
   <i type="logical" name="LMUSIC"> F  </i>
   <v name="POMASS">     95.94000000     32.06600000</v>
   <v name="DARWINR">      0.00000000      0.00000000</v>
   <v name="DARWINV">      1.00000000      1.00000000</v>
   <i type="logical" name="LCORR"> T  </i>
  </separator>
  <i type="logical" name="GGA_COMPAT"> T  </i>
  <i type="logical" name="LBERRY"> F  </i>
  <i type="int" name="ICORELEVEL">     0</i>
  <i type="logical" name="LDAU"> F  </i>
  <i type="int" name="I_CONSTRAINED_M">     0</i>
  <separator name="electronic exchange-correlation" >
   <i type="string" name="GGA">--</i>
   <i type="int" name="VOSKOWN">     0</i>
   <i type="logical" name="LHFCALC"> T  </i>
   <i type="string" name="PRECFOCK">normal</i>
   <i type="logical" name="LSYMGRAD"> F  </i>
   <i type="logical" name="LHFONE"> F  </i>
   <i type="logical" name="LRHFCALC"> F  </i>
   <i type="logical" name="LTHOMAS"> F  </i>
   <i type="logical" name="LMODELHF"> F  </i>
   <i name="ENCUT4O">     -1.00000000</i>
   <i type="int" name="EXXOEP">     0</i>
   <i type="int" name="FOURORBIT">     0</i>
   <i name="AEXX">      1.00000000</i>
   <i name="HFALPHA">     -1.00000000</i>
   <i name="MCALPHA">      0.00000000</i>
   <i name="ALDAX">      0.00000000</i>
   <i name="AGGAX">      0.00000000</i>
   <i name="ALDAC">      0.00000000</i>
   <i name="AGGAC">      0.00000000</i>
   <i type="int" name="NKREDX">     1</i>
   <i type="int" name="NKREDY">     1</i>
   <i type="int" name="NKREDZ">     1</i>
   <i type="logical" name="SHIFTRED"> F  </i>
   <i type="logical" name="ODDONLY"> F  </i>
   <i type="logical" name="EVENONLY"> F  </i>
   <i type="int" name="LMAXFOCK">     4</i>
   <i type="int" name="NMAXFOCKAE">     1</i>
   <i type="logical" name="LFOCKAEDFT"> F  </i>
   <i name="HFSCREEN">      0.00000000</i>
   <i name="HFSCREENC">      0.00000000</i>
   <i type="int" name="NBANDSGWLOW">     1</i>
  </separator>
  <separator name="vdW DFT" >
   <i type="logical" name="LUSE_VDW"> F  </i>
   <i name="Zab_VDW">     -0.84910000</i>
   <i name="PARAM1">      0.12340000</i>
   <i name="PARAM2">      1.00000000</i>
   <i name="PARAM3">      0.00000000</i>
  </separator>
  <separator name="model GW" >
   <i type="int" name="MODEL_GW">     0</i>
   <i name="MODEL_EPS0">     12.28492805</i>
   <i name="MODEL_ALPHA">      1.00000000</i>
  </separator>
  <separator name="linear response parameters" >
   <i type="logical" name="LEPSILON"> F  </i>
   <i type="logical" name="LRPA"> F  </i>
   <i type="logical" name="LNABLA"> F  </i>
   <i type="logical" name="LVEL"> F  </i>
   <i type="int" name="KINTER">     0</i>
   <i name="CSHIFT">      0.10000000</i>
   <i name="OMEGAMAX">     -1.00000000</i>
   <i name="DEG_THRESHOLD">      0.00200000</i>
   <i name="RTIME">     -0.10000000</i>
   <i name="WPLASMAI">      0.00000000</i>
   <v name="DFIELD">      0.00000000      0.00000000      0.00000000</v>
   <v name="WPLASMA">      0.00000000      0.00000000      0.00000000      0.00000000      0.00000000      0.00000000      0.00000000      0.00000000      0.00000000</v>
  </separator>
  <separator name="orbital magnetization" >
   <i type="logical" name="NUCIND"> F  </i>
   <v name="MAGPOS">      0.00000000      0.00000000      0.00000000</v>
   <i type="logical" name="LNICSALL"> T  </i>
   <i type="logical" name="ORBITALMAG"> F  </i>
   <i type="logical" name="LMAGBLOCH"> F  </i>
   <i type="logical" name="LCHIMAG"> F  </i>
   <i type="logical" name="LGAUGE"> T  </i>
   <i type="int" name="MAGATOM">     0</i>
   <v name="MAGDIPOL">      0.00000000      0.00000000      0.00000000</v>
   <v name="AVECCONST">      0.00000000      0.00000000      0.00000000</v>
  </separator>
  <separator name="response functions" >
   <i type="logical" name="LADDER"> F  </i>
   <i type="logical" name="LRPAFORCE"> F  </i>
   <i type="logical" name="LFXC"> F  </i>
   <i type="logical" name="LHARTREE"> T  </i>
   <i type="int" name="IBSE">     0</i>
   <v type="int" name="KPOINT">    -1     0     0     0</v>
   <i type="logical" name="LTCTE"> F  </i>
   <i type="logical" name="LTETE"> F  </i>
   <i type="logical" name="LTRIPLET"> F  </i>
   <i type="logical" name="LFXCEPS"> F  </i>
   <i type="logical" name="LFXHEG"> F  </i>
   <i type="int" name="NATURALO">     2</i>
   <i type="logical" name="L2ORDER"> F  </i>
   <i type="logical" name="LMP2LT"> F  </i>
   <i type="logical" name="LUSEW"> F  </i>
   <i name="ENCUTGW">    266.66666667</i>
   <i name="ENCUTGWSOFT">    266.66666667</i>
   <i name="ENCUTLF">     -1.00000000</i>
   <i type="int" name="LMAXMP2">    -1</i>
   <i name="SCISSOR">      0.00000000</i>
   <i type="int" name="NOMEGA">   100</i>
   <i type="int" name="NOMEGAR">   100</i>
   <i type="int" name="NBANDSGW">    -1</i>
   <i type="int" name="NBANDSO">    -1</i>
   <i type="int" name="NBANDSV">    -1</i>
   <i type="int" name="NELM">     1</i>
   <i type="int" name="NELMHF">     1</i>
   <i type="int" name="DIM">     3</i>
   <i type="int" name="ANTIRES">     0</i>
   <i name="OMEGAMAX">    -30.00000000</i>
   <i name="OMEGAMIN">    -30.00000000</i>
   <i name="OMEGATL">   -200.00000000</i>
   <i type="int" name="OMEGAGRID">     0</i>
   <i name="CSHIFT">     -0.10000000</i>
   <i type="logical" name="SELFENERGY"> F  </i>
   <i type="logical" name="LSPECTRAL"> T  </i>
   <i type="logical" name="LSPECTRALGW"> F  </i>
   <i type="logical" name="LSINGLES"> F  </i>
   <i type="logical" name="LFERMIGW"> F  </i>
   <i type="logical" name="ODDONLYGW"> F  </i>
   <i type="logical" name="EVENONLYGW"> F  </i>
   <i type="int" name="NKREDLFX">     1</i>
   <i type="int" name="NKREDLFY">     1</i>
   <i type="int" name="NKREDLFZ">     1</i>
   <i type="int" name="MAXMEM"> 12000</i>
   <i type="int" name="TELESCOPE">     0</i>
   <i type="int" name="TAUPAR">     1</i>
   <i type="int" name="OMEGAPAR">    -1</i>
   <i name="LAMBDA">      1.00000000</i>
  </separator>
  <separator name="External order field" >
   <i name="OFIELD_KAPPA">      0.00000000</i>
   <v name="OFIELD_K">      0.00000000      0.00000000      0.00000000</v>
   <i name="OFIELD_Q6_NEAR">      0.00000000</i>
   <i name="OFIELD_Q6_FAR">      0.00000000</i>
   <i name="OFIELD_A">      0.00000000</i>
  </separator>
 </parameters>
 <atominfo>
  <atoms>       6 </atoms>
  <types>       2 </types>
  <array name="atoms" >
   <dimension dim="1">ion</dimension>
   <field type="string">element</field>
   <field type="int">atomtype</field>
   <set>
    <rc><c>Mo</c><c>   1</c></rc>
    <rc><c>Mo</c><c>   1</c></rc>
    <rc><c>S </c><c>   2</c></rc>
    <rc><c>S </c><c>   2</c></rc>
    <rc><c>S </c><c>   2</c></rc>
    <rc><c>S </c><c>   2</c></rc>
   </set>
  </array>
  <array name="atomtypes" >
   <dimension dim="1">type</dimension>
   <field type="int">atomspertype</field>
   <field type="string">element</field>
   <field>mass</field>
   <field>valence</field>
   <field type="string">pseudopotential</field>
   <set>
    <rc><c>   2</c><c>Mo</c><c>     95.94000000</c><c>     14.00000000</c><c>  PAW_PBE Mo_sv_GW 05Dec2013            </c></rc>
    <rc><c>   4</c><c>S </c><c>     32.06600000</c><c>      6.00000000</c><c>  PAW_PBE S_GW 19Mar2012                </c></rc>
   </set>
  </array>
 </atominfo>
 <structure name="initialpos" >
  <crystal>
   <varray name="basis" >
    <v>       1.59265383      -2.75855735       0.00000000 </v>
    <v>       1.59265383       2.75855735       0.00000000 </v>
    <v>       0.00000000       0.00000000      13.98103146 </v>
   </varray>
   <i name="volume">    122.84928053 </i>
   <varray name="rec_basis" >
    <v>       0.31394142      -0.18125416       0.00000000 </v>
    <v>       0.31394142       0.18125416       0.00000000 </v>
    <v>       0.00000000       0.00000000       0.07152548 </v>
   </varray>
  </crystal>
  <varray name="positions" >
   <v>       0.33333333       0.66666667       0.25000000 </v>
   <v>       0.66666667       0.33333333       0.75000000 </v>
   <v>       0.33333333       0.66666667       0.63810651 </v>
   <v>       0.66666667       0.33333333       0.36189349 </v>
   <v>       0.66666667       0.33333333       0.13810650 </v>
   <v>       0.33333333       0.66666667       0.86189353 </v>
  </varray>
 </structure>
 <kpoints>
  <generation param="Gamma">
   <v type="int" name="divisions">      12       12        1 </v>
   <v name="usershift">      0.00000000       0.00000000       0.00000000 </v>
   <v name="genvec1">      0.08333333      -0.00000000       0.00000000 </v>
   <v name="genvec2">     -0.00000000       0.08333333       0.00000000 </v>
   <v name="genvec3">      0.00000000       0.00000000       1.00000000 </v>
   <v name="shift">      0.00000000       0.00000000       0.00000000 </v>
  </generation>
  <varray name="kpointlist" >
   <v>       0.00000000       0.00000000       0.00000000 </v>
   <v>       0.08333333      -0.00000000       0.00000000 </v>
   <v>       0.16666667      -0.00000000       0.00000000 </v>
   <v>       0.25000000      -0.00000000       0.00000000 </v>
   <v>       0.33333333      -0.00000000       0.00000000 </v>
   <v>       0.41666667      -0.00000000       0.00000000 </v>
   <v>       0.50000000      -0.00000000       0.00000000 </v>
   <v>      -0.41666667       0.00000000       0.00000000 </v>
   <v>      -0.33333333       0.00000000       0.00000000 </v>
   <v>      -0.25000000       0.00000000       0.00000000 </v>
   <v>      -0.16666667       0.00000000       0.00000000 </v>
   <v>      -0.08333333       0.00000000       0.00000000 </v>
   <v>      -0.00000000       0.08333333       0.00000000 </v>
   <v>       0.08333333       0.08333333       0.00000000 </v>
   <v>       0.16666667       0.08333333       0.00000000 </v>
   <v>       0.25000000       0.08333333       0.00000000 </v>
   <v>       0.33333333       0.08333333       0.00000000 </v>
   <v>       0.41666667       0.08333333       0.00000000 </v>
   <v>       0.50000000       0.08333333       0.00000000 </v>
   <v>      -0.41666667       0.08333333       0.00000000 </v>
   <v>      -0.33333333       0.08333333       0.00000000 </v>
   <v>      -0.25000000       0.08333333       0.00000000 </v>
   <v>      -0.16666667       0.08333333       0.00000000 </v>
   <v>      -0.08333333       0.08333333       0.00000000 </v>
   <v>      -0.00000000       0.16666667       0.00000000 </v>
   <v>       0.08333333       0.16666667       0.00000000 </v>
   <v>       0.16666667       0.16666667       0.00000000 </v>
   <v>       0.25000000       0.16666667       0.00000000 </v>
   <v>       0.33333333       0.16666667       0.00000000 </v>
   <v>       0.41666667       0.16666667       0.00000000 </v>
   <v>       0.50000000       0.16666667       0.00000000 </v>
   <v>      -0.41666667       0.16666667       0.00000000 </v>
   <v>      -0.33333333       0.16666667       0.00000000 </v>
   <v>      -0.25000000       0.16666667       0.00000000 </v>
   <v>      -0.16666667       0.16666667       0.00000000 </v>
   <v>      -0.08333333       0.16666667       0.00000000 </v>
   <v>      -0.00000000       0.25000000       0.00000000 </v>
   <v>       0.08333333       0.25000000       0.00000000 </v>
   <v>       0.16666667       0.25000000       0.00000000 </v>
   <v>       0.25000000       0.25000000       0.00000000 </v>
   <v>       0.33333333       0.25000000       0.00000000 </v>
   <v>       0.41666667       0.25000000       0.00000000 </v>
   <v>       0.50000000       0.25000000       0.00000000 </v>
   <v>      -0.41666667       0.25000000       0.00000000 </v>
   <v>      -0.33333333       0.25000000       0.00000000 </v>
   <v>      -0.25000000       0.25000000       0.00000000 </v>
   <v>      -0.16666667       0.25000000       0.00000000 </v>
   <v>      -0.08333333       0.25000000       0.00000000 </v>
   <v>      -0.00000000       0.33333333       0.00000000 </v>
   <v>       0.08333333       0.33333333       0.00000000 </v>
   <v>       0.16666667       0.33333333       0.00000000 </v>
   <v>       0.25000000       0.33333333       0.00000000 </v>
   <v>       0.33333333       0.33333333       0.00000000 </v>
   <v>       0.41666667       0.33333333       0.00000000 </v>
   <v>       0.50000000       0.33333333       0.00000000 </v>
   <v>      -0.41666667       0.33333333       0.00000000 </v>
   <v>      -0.33333333       0.33333333       0.00000000 </v>
   <v>      -0.25000000       0.33333333       0.00000000 </v>
   <v>      -0.16666667       0.33333333       0.00000000 </v>
   <v>      -0.08333333       0.33333333       0.00000000 </v>
   <v>      -0.00000000       0.41666667       0.00000000 </v>
   <v>       0.08333333       0.41666667       0.00000000 </v>
   <v>       0.16666667       0.41666667       0.00000000 </v>
   <v>       0.25000000       0.41666667       0.00000000 </v>
   <v>       0.33333333       0.41666667       0.00000000 </v>
   <v>       0.41666667       0.41666667       0.00000000 </v>
   <v>       0.50000000       0.41666667       0.00000000 </v>
   <v>      -0.41666667       0.41666667       0.00000000 </v>
   <v>      -0.33333333       0.41666667       0.00000000 </v>
   <v>      -0.25000000       0.41666667       0.00000000 </v>
   <v>      -0.16666667       0.41666667       0.00000000 </v>
   <v>      -0.08333333       0.41666667       0.00000000 </v>
   <v>      -0.00000000       0.50000000       0.00000000 </v>
   <v>       0.08333333       0.50000000       0.00000000 </v>
   <v>       0.16666667       0.50000000       0.00000000 </v>
   <v>       0.25000000       0.50000000       0.00000000 </v>
   <v>       0.33333333       0.50000000       0.00000000 </v>
   <v>       0.41666667       0.50000000       0.00000000 </v>
   <v>       0.50000000       0.50000000       0.00000000 </v>
   <v>      -0.41666667       0.50000000       0.00000000 </v>
   <v>      -0.33333333       0.50000000       0.00000000 </v>
   <v>      -0.25000000       0.50000000       0.00000000 </v>
   <v>      -0.16666667       0.50000000       0.00000000 </v>
   <v>      -0.08333333       0.50000000       0.00000000 </v>
   <v>       0.00000000      -0.41666667       0.00000000 </v>
   <v>       0.08333333      -0.41666667       0.00000000 </v>
   <v>       0.16666667      -0.41666667       0.00000000 </v>
   <v>       0.25000000      -0.41666667       0.00000000 </v>
   <v>       0.33333333      -0.41666667       0.00000000 </v>
   <v>       0.41666667      -0.41666667       0.00000000 </v>
   <v>       0.50000000      -0.41666667       0.00000000 </v>
   <v>      -0.41666667      -0.41666667       0.00000000 </v>
   <v>      -0.33333333      -0.41666667       0.00000000 </v>
   <v>      -0.25000000      -0.41666667       0.00000000 </v>
   <v>      -0.16666667      -0.41666667       0.00000000 </v>
   <v>      -0.08333333      -0.41666667       0.00000000 </v>
   <v>       0.00000000      -0.33333333       0.00000000 </v>
   <v>       0.08333333      -0.33333333       0.00000000 </v>
   <v>       0.16666667      -0.33333333       0.00000000 </v>
   <v>       0.25000000      -0.33333333       0.00000000 </v>
   <v>       0.33333333      -0.33333333       0.00000000 </v>
   <v>       0.41666667      -0.33333333       0.00000000 </v>
   <v>       0.50000000      -0.33333333       0.00000000 </v>
   <v>      -0.41666667      -0.33333333       0.00000000 </v>
   <v>      -0.33333333      -0.33333333       0.00000000 </v>
   <v>      -0.25000000      -0.33333333       0.00000000 </v>
   <v>      -0.16666667      -0.33333333       0.00000000 </v>
   <v>      -0.08333333      -0.33333333       0.00000000 </v>
   <v>       0.00000000      -0.25000000       0.00000000 </v>
   <v>       0.08333333      -0.25000000       0.00000000 </v>
   <v>       0.16666667      -0.25000000       0.00000000 </v>
   <v>       0.25000000      -0.25000000       0.00000000 </v>
   <v>       0.33333333      -0.25000000       0.00000000 </v>
   <v>       0.41666667      -0.25000000       0.00000000 </v>
   <v>       0.50000000      -0.25000000       0.00000000 </v>
   <v>      -0.41666667      -0.25000000       0.00000000 </v>
   <v>      -0.33333333      -0.25000000       0.00000000 </v>
   <v>      -0.25000000      -0.25000000       0.00000000 </v>
   <v>      -0.16666667      -0.25000000       0.00000000 </v>
   <v>      -0.08333333      -0.25000000       0.00000000 </v>
   <v>       0.00000000      -0.16666667       0.00000000 </v>
   <v>       0.08333333      -0.16666667       0.00000000 </v>
   <v>       0.16666667      -0.16666667       0.00000000 </v>
   <v>       0.25000000      -0.16666667       0.00000000 </v>
   <v>       0.33333333      -0.16666667       0.00000000 </v>
   <v>       0.41666667      -0.16666667       0.00000000 </v>
   <v>       0.50000000      -0.16666667       0.00000000 </v>
   <v>      -0.41666667      -0.16666667       0.00000000 </v>
   <v>      -0.33333333      -0.16666667       0.00000000 </v>
   <v>      -0.25000000      -0.16666667       0.00000000 </v>
   <v>      -0.16666667      -0.16666667       0.00000000 </v>
   <v>      -0.08333333      -0.16666667       0.00000000 </v>
   <v>       0.00000000      -0.08333333       0.00000000 </v>
   <v>       0.08333333      -0.08333333       0.00000000 </v>
   <v>       0.16666667      -0.08333333       0.00000000 </v>
   <v>       0.25000000      -0.08333333       0.00000000 </v>
   <v>       0.33333333      -0.08333333       0.00000000 </v>
   <v>       0.41666667      -0.08333333       0.00000000 </v>
   <v>       0.50000000      -0.08333333       0.00000000 </v>
   <v>      -0.41666667      -0.08333333       0.00000000 </v>
   <v>      -0.33333333      -0.08333333       0.00000000 </v>
   <v>      -0.25000000      -0.08333333       0.00000000 </v>
   <v>      -0.16666667      -0.08333333       0.00000000 </v>
   <v>      -0.08333333      -0.08333333       0.00000000 </v>
  </varray>
  <varray name="weights" >
   <v>       0.00694444 </v>
   <v>       0.00694444 </v>
   <v>       0.00694444 </v>
   <v>       0.00694444 </v>
   <v>       0.00694444 </v>
   <v>       0.00694444 </v>
   <v>       0.00694444 </v>
   <v>       0.00694444 </v>
   <v>       0.00694444 </v>
   <v>       0.00694444 </v>
   <v>       0.00694444 </v>
   <v>       0.00694444 </v>
   <v>       0.00694444 </v>
   <v>       0.00694444 </v>
   <v>       0.00694444 </v>
   <v>       0.00694444 </v>
   <v>       0.00694444 </v>
   <v>       0.00694444 </v>
   <v>       0.00694444 </v>
   <v>       0.00694444 </v>
   <v>       0.00694444 </v>
   <v>       0.00694444 </v>
   <v>       0.00694444 </v>
   <v>       0.00694444 </v>
   <v>       0.00694444 </v>
   <v>       0.00694444 </v>
   <v>       0.00694444 </v>
   <v>       0.00694444 </v>
   <v>       0.00694444 </v>
   <v>       0.00694444 </v>
   <v>       0.00694444 </v>
   <v>       0.00694444 </v>
   <v>       0.00694444 </v>
   <v>       0.00694444 </v>
   <v>       0.00694444 </v>
   <v>       0.00694444 </v>
   <v>       0.00694444 </v>
   <v>       0.00694444 </v>
   <v>       0.00694444 </v>
   <v>       0.00694444 </v>
   <v>       0.00694444 </v>
   <v>       0.00694444 </v>
   <v>       0.00694444 </v>
   <v>       0.00694444 </v>
   <v>       0.00694444 </v>
   <v>       0.00694444 </v>
   <v>       0.00694444 </v>
   <v>       0.00694444 </v>
   <v>       0.00694444 </v>
   <v>       0.00694444 </v>
   <v>       0.00694444 </v>
   <v>       0.00694444 </v>
   <v>       0.00694444 </v>
   <v>       0.00694444 </v>
   <v>       0.00694444 </v>
   <v>       0.00694444 </v>
   <v>       0.00694444 </v>
   <v>       0.00694444 </v>
   <v>       0.00694444 </v>
   <v>       0.00694444 </v>
   <v>       0.00694444 </v>
   <v>       0.00694444 </v>
   <v>       0.00694444 </v>
   <v>       0.00694444 </v>
   <v>       0.00694444 </v>
   <v>       0.00694444 </v>
   <v>       0.00694444 </v>
   <v>       0.00694444 </v>
   <v>       0.00694444 </v>
   <v>       0.00694444 </v>
   <v>       0.00694444 </v>
   <v>       0.00694444 </v>
   <v>       0.00694444 </v>
   <v>       0.00694444 </v>
   <v>       0.00694444 </v>
   <v>       0.00694444 </v>
   <v>       0.00694444 </v>
   <v>       0.00694444 </v>
   <v>       0.00694444 </v>
   <v>       0.00694444 </v>
   <v>       0.00694444 </v>
   <v>       0.00694444 </v>
   <v>       0.00694444 </v>
   <v>       0.00694444 </v>
   <v>       0.00694444 </v>
   <v>       0.00694444 </v>
   <v>       0.00694444 </v>
   <v>       0.00694444 </v>
   <v>       0.00694444 </v>
   <v>       0.00694444 </v>
   <v>       0.00694444 </v>
   <v>       0.00694444 </v>
   <v>       0.00694444 </v>
   <v>       0.00694444 </v>
   <v>       0.00694444 </v>
   <v>       0.00694444 </v>
   <v>       0.00694444 </v>
   <v>       0.00694444 </v>
   <v>       0.00694444 </v>
   <v>       0.00694444 </v>
   <v>       0.00694444 </v>
   <v>       0.00694444 </v>
   <v>       0.00694444 </v>
   <v>       0.00694444 </v>
   <v>       0.00694444 </v>
   <v>       0.00694444 </v>
   <v>       0.00694444 </v>
   <v>       0.00694444 </v>
   <v>       0.00694444 </v>
   <v>       0.00694444 </v>
   <v>       0.00694444 </v>
   <v>       0.00694444 </v>
   <v>       0.00694444 </v>
   <v>       0.00694444 </v>
   <v>       0.00694444 </v>
   <v>       0.00694444 </v>
   <v>       0.00694444 </v>
   <v>       0.00694444 </v>
   <v>       0.00694444 </v>
   <v>       0.00694444 </v>
   <v>       0.00694444 </v>
   <v>       0.00694444 </v>
   <v>       0.00694444 </v>
   <v>       0.00694444 </v>
   <v>       0.00694444 </v>
   <v>       0.00694444 </v>
   <v>       0.00694444 </v>
   <v>       0.00694444 </v>
   <v>       0.00694444 </v>
   <v>       0.00694444 </v>
   <v>       0.00694444 </v>
   <v>       0.00694444 </v>
   <v>       0.00694444 </v>
   <v>       0.00694444 </v>
   <v>       0.00694444 </v>
   <v>       0.00694444 </v>
   <v>       0.00694444 </v>
   <v>       0.00694444 </v>
   <v>       0.00694444 </v>
   <v>       0.00694444 </v>
   <v>       0.00694444 </v>
   <v>       0.00694444 </v>
   <v>       0.00694444 </v>
   <v>       0.00694444 </v>
  </varray>
 </kpoints>
 <dielectricfunction comment="HEAD OF MICROSCOPIC DIELECTRIC TENSOR (INDEPENDENT PARTICLE)">
  <imag>
   <array>
    <dimension dim="1">gridpoints</dimension>
    <field>energy</field>
    <field>xx</field>
    <field>yy</field>
    <field>zz</field>
    <field>xy</field>
    <field>yz</field>
    <field>zx</field>
    <set>
     <r>     0.0000    -0.0000     0.0000     0.0000    -0.0000     0.0000    -0.0000 </r>
     <r>     0.5634     0.9840     0.9840     0.1669    -0.0000     0.0000    -0.0000 </r>
     <r>     1.1262     2.5841     2.5841     0.3737    -0.0000     0.0000    -0.0000 </r>
     <r>     1.6881     5.5205     5.5205     0.6959    -0.0000     0.0000    -0.0000 </r>
     <r>     2.2485     9.6930     9.6930     1.2922    -0.0000     0.0000     0.0000 </r>
     <r>     2.8069    12.9534    12.9534     2.2478    -0.0000     0.0000     0.0000 </r>
     <r>     3.3629    12.7417    12.7417     3.3655    -0.0000     0.0000     0.0000 </r>
     <r>     3.9162    11.5201    11.5201     4.8585    -0.0000     0.0000    -0.0000 </r>
     <r>     4.4663    10.3957    10.3957     7.2106    -0.0000    -0.0000    -0.0000 </r>
     <r>     5.0129     9.0859     9.0859     9.6819    -0.0000    -0.0000    -0.0000 </r>
     <r>     5.5557     7.7832     7.7832    10.1495    -0.0000    -0.0000     0.0000 </r>
     <r>     6.0946     6.5776     6.5776     8.3423    -0.0000    -0.0000     0.0000 </r>
     <r>     6.6293     5.3555     5.3555     6.6083    -0.0000    -0.0000     0.0000 </r>
     <r>     7.1595     4.2858     4.2858     5.9609    -0.0000    -0.0000    -0.0000 </r>
     <r>     7.6854     3.4878     3.4878     6.0915    -0.0000    -0.0000    -0.0000 </r>
     <r>     8.2067     2.9716     2.9716     6.2883    -0.0000    -0.0000    -0.0000 </r>
     <r>     8.7236     2.9471     2.9471     6.1249    -0.0000    -0.0000    -0.0000 </r>
     <r>     9.2359     3.2172     3.2172     5.7360    -0.0000    -0.0000    -0.0000 </r>
     <r>     9.7437     3.5447     3.5447     5.4230    -0.0000    -0.0000    -0.0000 </r>
     <r>    10.2472     3.8805     3.8805     4.8317    -0.0000    -0.0000    -0.0000 </r>
     <r>    10.7465     3.9751     3.9751     4.1532    -0.0000    -0.0000    -0.0000 </r>
     <r>    11.2417     3.7154     3.7154     3.6856    -0.0000    -0.0000    -0.0000 </r>
     <r>    11.7330     3.3360     3.3360     3.3236    -0.0000    -0.0000    -0.0000 </r>
     <r>    12.2207     3.0022     3.0022     3.0211    -0.0000    -0.0000    -0.0000 </r>
     <r>    12.7050     2.6740     2.6740     2.9152    -0.0000    -0.0000    -0.0000 </r>
     <r>    13.1860     2.4179     2.4179     2.8633    -0.0000    -0.0000    -0.0000 </r>
     <r>    13.6641     2.2041     2.2041     2.4981    -0.0000    -0.0000    -0.0000 </r>
     <r>    14.1396     1.9581     1.9581     2.0082    -0.0000    -0.0000    -0.0000 </r>
     <r>    14.6129     1.7103     1.7103     1.6159    -0.0001    -0.0000    -0.0000 </r>
     <r>    15.0842     1.5018     1.5018     1.3135    -0.0001    -0.0000    -0.0000 </r>
     <r>    15.5538     1.3129     1.3129     1.0821    -0.0001    -0.0000    -0.0000 </r>
     <r>    16.0222     1.1475     1.1475     0.9392    -0.0001    -0.0000    -0.0000 </r>
     <r>    16.4897     1.0052     1.0052     0.8387    -0.0001    -0.0000    -0.0000 </r>
     <r>    16.9566     0.8770     0.8770     0.7258    -0.0001    -0.0000    -0.0000 </r>
     <r>    17.4235     0.7500     0.7500     0.6207    -0.0001    -0.0000    -0.0000 </r>
     <r>    17.8906     0.6329     0.6329     0.5505    -0.0001    -0.0000    -0.0000 </r>
     <r>    18.3584     0.5401     0.5401     0.5008    -0.0001    -0.0000    -0.0000 </r>
     <r>    18.8274     0.4652     0.4652     0.4535    -0.0001    -0.0000    -0.0000 </r>
     <r>    19.2980     0.4024     0.4024     0.4083    -0.0002    -0.0000    -0.0000 </r>
     <r>    19.7706     0.3536     0.3536     0.3564    -0.0002     0.0000    -0.0000 </r>
     <r>    20.2459     0.3120     0.3120     0.3039    -0.0002     0.0000    -0.0000 </r>
     <r>    20.7242     0.2812     0.2812     0.2568    -0.0003     0.0000    -0.0000 </r>
     <r>    21.2060     0.2561     0.2561     0.2207    -0.0002     0.0000    -0.0000 </r>
     <r>    21.6920     0.2288     0.2288     0.1993     0.0001     0.0000     0.0000 </r>
     <r>    22.1829     0.2006     0.2006     0.1859     0.0003     0.0000     0.0000 </r>
     <r>    22.6790     0.1760     0.1760     0.1670     0.0003     0.0000     0.0000 </r>
     <r>    23.1811     0.1554     0.1554     0.1452     0.0003     0.0000    -0.0000 </r>
     <r>    23.6898     0.1409     0.1409     0.1265     0.0003     0.0000    -0.0000 </r>
     <r>    24.2060     0.1240     0.1240     0.1093     0.0002     0.0000    -0.0000 </r>
     <r>    24.7300     0.1042     0.1042     0.0941     0.0002    -0.0000    -0.0000 </r>
     <r>    25.2632     0.0875     0.0875     0.0809     0.0001    -0.0000    -0.0000 </r>
     <r>    25.8060     0.0736     0.0736     0.0696     0.0000    -0.0000     0.0000 </r>
     <r>    26.3595     0.0619     0.0619     0.0597     0.0000    -0.0000     0.0000 </r>
     <r>    26.9243     0.0529     0.0529     0.0532     0.0000    -0.0000     0.0000 </r>
     <r>    27.5021     0.0474     0.0474     0.0489     0.0000    -0.0000     0.0000 </r>
     <r>    28.0933     0.0443     0.0443     0.0456     0.0000    -0.0000     0.0000 </r>
     <r>    28.6993     0.0422     0.0422     0.0420     0.0000    -0.0000     0.0000 </r>
     <r>    29.3217     0.0403     0.0403     0.0390     0.0000    -0.0000     0.0000 </r>
     <r>    29.9616     0.0392     0.0392     0.0372     0.0000    -0.0000     0.0000 </r>
     <r>    30.6204     0.0389     0.0389     0.0362     0.0000    -0.0000    -0.0000 </r>
     <r>    31.2998     0.0392     0.0392     0.0362     0.0001    -0.0000    -0.0000 </r>
     <r>    32.0018     0.0403     0.0403     0.0372     0.0001    -0.0000    -0.0000 </r>
     <r>    32.7282     0.0427     0.0427     0.0390     0.0001    -0.0000    -0.0000 </r>
     <r>    33.4807     0.0479     0.0479     0.0423     0.0000    -0.0000    -0.0000 </r>
     <r>    34.2623     0.0601     0.0601     0.0515    -0.0000     0.0000     0.0000 </r>
     <r>    35.0748     0.0951     0.0951     0.0779    -0.0000     0.0000     0.0000 </r>
     <r>    35.9215     0.2179     0.2179     0.1684    -0.0000     0.0000     0.0000 </r>
     <r>    36.8056     0.5136     0.5136     0.3860    -0.0000     0.0000     0.0000 </r>
     <r>    37.7305     0.6956     0.6956     0.5513    -0.0000     0.0000     0.0000 </r>
     <r>    38.6997     0.4584     0.4584     0.4710    -0.0000     0.0000     0.0000 </r>
     <r>    39.7177     0.2251     0.2251     0.3012    -0.0000    -0.0000     0.0000 </r>
     <r>    40.7891     0.1093     0.1093     0.1418     0.0000    -0.0000     0.0000 </r>
     <r>    41.9197     0.0899     0.0899     0.1015     0.0000    -0.0000     0.0000 </r>
     <r>    43.1151     0.0873     0.0873     0.0956     0.0000    -0.0000     0.0000 </r>
     <r>    44.3827     0.0792     0.0792     0.0817     0.0000    -0.0000     0.0000 </r>
     <r>    45.7298     0.0651     0.0651     0.0646     0.0000    -0.0000     0.0000 </r>
     <r>    47.1657     0.0535     0.0535     0.0549     0.0000    -0.0000     0.0000 </r>
     <r>    48.7003     0.0400     0.0400     0.0415     0.0000    -0.0000     0.0000 </r>
     <r>    50.3454     0.0289     0.0289     0.0311     0.0000     0.0000     0.0000 </r>
     <r>    52.1148     0.0208     0.0208     0.0238     0.0000     0.0000     0.0000 </r>
     <r>    54.0244     0.0164     0.0164     0.0175     0.0000     0.0000     0.0000 </r>
     <r>    56.0922     0.0107     0.0107     0.0098     0.0000     0.0000     0.0000 </r>
     <r>    58.3405     0.0054     0.0054     0.0052     0.0000     0.0000     0.0000 </r>
     <r>    60.7946     0.0037     0.0037     0.0037     0.0000     0.0000     0.0000 </r>
     <r>    63.4854     0.0031     0.0031     0.0030     0.0000     0.0000     0.0000 </r>
     <r>    66.4503     0.0027     0.0027     0.0026     0.0000    -0.0000     0.0000 </r>
     <r>    69.7339     0.0026     0.0026     0.0025     0.0000    -0.0000     0.0000 </r>
     <r>    73.3912     0.0023     0.0023     0.0023     0.0000    -0.0000     0.0000 </r>
     <r>    77.4907     0.0018     0.0018     0.0019     0.0000     0.0000     0.0000 </r>
     <r>    82.1179     0.0014     0.0014     0.0013     0.0000     0.0000     0.0000 </r>
     <r>    87.3817     0.0009     0.0009     0.0009     0.0000     0.0000     0.0000 </r>
     <r>    93.4226     0.0007     0.0007     0.0007     0.0000    -0.0000     0.0000 </r>
     <r>   100.4250     0.0006     0.0006     0.0006     0.0000    -0.0000     0.0000 </r>
     <r>   108.6360     0.0005     0.0005     0.0005     0.0000    -0.0000     0.0000 </r>
     <r>   118.3951     0.0003     0.0003     0.0003     0.0000    -0.0000     0.0000 </r>
     <r>   130.1804     0.0003     0.0003     0.0003     0.0000    -0.0000     0.0000 </r>
     <r>   144.6882     0.0002     0.0002     0.0002     0.0000    -0.0000     0.0000 </r>
     <r>   162.9745     0.0001     0.0001     0.0001     0.0000    -0.0000     0.0000 </r>
     <r>   186.7196     0.0001     0.0001     0.0001     0.0000    -0.0000     0.0000 </r>
     <r>   218.7720     0.0001     0.0001     0.0001     0.0000    -0.0000     0.0000 </r>
    </set>
   </array>
  </imag>
  <real>
   <array>
    <dimension dim="1">gridpoints</dimension>
    <field>energy</field>
    <field>xx</field>
    <field>yy</field>
    <field>zz</field>
    <field>xy</field>
    <field>yz</field>
    <field>zx</field>
    <set>
     <r>     0.0000    13.8259    13.8259     7.8065     0.0000    -0.0000    -0.0000 </r>
     <r>     0.5634    14.1307    14.1307     7.8751    -0.0000    -0.0000     0.0000 </r>
     <r>     1.1262    14.9645    14.9645     8.0908    -0.0000    -0.0000     0.0000 </r>
     <r>     1.6881    15.6165    15.6165     8.4776     0.0000    -0.0000     0.0000 </r>
     <r>     2.2485    14.5627    14.5627     9.0038     0.0000    -0.0000     0.0000 </r>
     <r>     2.8069    10.5009    10.5009     9.4275     0.0000    -0.0000     0.0000 </r>
     <r>     3.3629     6.0947     6.0947     9.6912     0.0000    -0.0000     0.0000 </r>
     <r>     3.9162     3.5998     3.5998     9.9629     0.0000    -0.0000     0.0000 </r>
     <r>     4.4663     1.7984     1.7984     9.6512    -0.0000    -0.0000     0.0000 </r>
     <r>     5.0129     0.4378     0.4378     7.5132    -0.0000    -0.0000     0.0000 </r>
     <r>     5.5557    -0.4063    -0.4063     3.9751    -0.0000    -0.0000     0.0000 </r>
     <r>     6.0946    -0.9587    -0.9587     1.6324     0.0000     0.0000     0.0000 </r>
     <r>     6.6293    -1.2061    -1.2061     1.3081     0.0000     0.0000    -0.0000 </r>
     <r>     7.1595    -1.0629    -1.0629     1.6586     0.0000    -0.0000    -0.0000 </r>
     <r>     7.6854    -0.6895    -0.6895     1.6988     0.0000    -0.0000    -0.0000 </r>
     <r>     8.2067    -0.1054    -0.1054     1.1758     0.0000    -0.0000     0.0000 </r>
     <r>     8.7236     0.4941     0.4941     0.4367     0.0000    -0.0000     0.0000 </r>
     <r>     9.2359     0.7814     0.7814    -0.0919     0.0000    -0.0000     0.0000 </r>
     <r>     9.7437     0.7994     0.7994    -0.6068     0.0000    -0.0000     0.0000 </r>
     <r>    10.2472     0.5341     0.5341    -1.1268     0.0000    -0.0000     0.0000 </r>
     <r>    10.7465    -0.0055    -0.0055    -1.2855     0.0000    -0.0000     0.0000 </r>
     <r>    11.2417    -0.5055    -0.5055    -1.2663     0.0000    -0.0000     0.0000 </r>
     <r>    11.7330    -0.7702    -0.7702    -1.2570     0.0000    -0.0000     0.0000 </r>
     <r>    12.2207    -0.9173    -0.9173    -1.1844     0.0000    -0.0000     0.0000 </r>
     <r>    12.7050    -0.9910    -0.9910    -1.1201     0.0000    -0.0000     0.0000 </r>
     <r>    13.1860    -1.0005    -1.0005    -1.3319     0.0000    -0.0000    -0.0000 </r>
     <r>    13.6641    -1.0382    -1.0382    -1.6255     0.0000    -0.0000    -0.0000 </r>
     <r>    14.1396    -1.0745    -1.0745    -1.6698     0.0000    -0.0000     0.0000 </r>
     <r>    14.6129    -1.0539    -1.0539    -1.5579     0.0000    -0.0000     0.0000 </r>
     <r>    15.0842    -1.0050    -1.0050    -1.4032     0.0000    -0.0000     0.0000 </r>
     <r>    15.5538    -0.9474    -0.9474    -1.2174     0.0000    -0.0000    -0.0000 </r>
     <r>    16.0222    -0.8761    -0.8761    -1.0376     0.0000    -0.0000    -0.0000 </r>
     <r>    16.4897    -0.8031    -0.8031    -0.9122     0.0000    -0.0000    -0.0000 </r>
     <r>    16.9566    -0.7349    -0.7349    -0.8103     0.0000    -0.0000    -0.0000 </r>
     <r>    17.4235    -0.6642    -0.6642    -0.6916     0.0000    -0.0000    -0.0000 </r>
     <r>    17.8906    -0.5770    -0.5770    -0.5733     0.0000    -0.0000    -0.0000 </r>
     <r>    18.3584    -0.4825    -0.4825    -0.4787     0.0000    -0.0000    -0.0000 </r>
     <r>    18.8274    -0.3933    -0.3933    -0.4004     0.0000    -0.0000    -0.0000 </r>
     <r>    19.2980    -0.3066    -0.3066    -0.3337     0.0000    -0.0000    -0.0000 </r>
     <r>    19.7706    -0.2255    -0.2255    -0.2728     0.0001    -0.0000    -0.0000 </r>
     <r>    20.2459    -0.1505    -0.1505    -0.2070     0.0001    -0.0000    -0.0000 </r>
     <r>    20.7242    -0.0806    -0.0806    -0.1364     0.0003    -0.0000    -0.0000 </r>
     <r>    21.2060    -0.0223    -0.0223    -0.0624     0.0005    -0.0000    -0.0000 </r>
     <r>    21.6920     0.0289     0.0289     0.0071     0.0006     0.0000    -0.0000 </r>
     <r>    22.1829     0.0800     0.0800     0.0623     0.0004     0.0000    -0.0000 </r>
     <r>    22.6790     0.1310     0.1310     0.1077     0.0002     0.0000    -0.0000 </r>
     <r>    23.1811     0.1812     0.1812     0.1544     0.0001     0.0000    -0.0000 </r>
     <r>    23.6898     0.2263     0.2263     0.2010     0.0000    -0.0000    -0.0000 </r>
     <r>    24.2060     0.2647     0.2647     0.2459    -0.0000    -0.0000    -0.0000 </r>
     <r>    24.7300     0.3049     0.3049     0.2898    -0.0001    -0.0000     0.0000 </r>
     <r>    25.2632     0.3472     0.3472     0.3324    -0.0001    -0.0000     0.0000 </r>
     <r>    25.8060     0.3886     0.3886     0.3737    -0.0001     0.0000     0.0000 </r>
     <r>    26.3595     0.4295     0.4295     0.4144    -0.0000     0.0000     0.0000 </r>
     <r>    26.9243     0.4702     0.4702     0.4541    -0.0000     0.0000     0.0000 </r>
     <r>    27.5021     0.5096     0.5096     0.4912    -0.0000     0.0000     0.0000 </r>
     <r>    28.0933     0.5463     0.5463     0.5258    -0.0000     0.0000     0.0000 </r>
     <r>    28.6993     0.5808     0.5808     0.5589    -0.0000     0.0000     0.0000 </r>
     <r>    29.3217     0.6142     0.6142     0.5920    -0.0000    -0.0000     0.0000 </r>
     <r>    29.9616     0.6472     0.6472     0.6247    -0.0000    -0.0000     0.0000 </r>
     <r>    30.6204     0.6802     0.6802     0.6572    -0.0000    -0.0000     0.0000 </r>
     <r>    31.2998     0.7138     0.7138     0.6902    -0.0000    -0.0000     0.0000 </r>
     <r>    32.0018     0.7493     0.7493     0.7242    -0.0000    -0.0000     0.0000 </r>
     <r>    32.7282     0.7887     0.7887     0.7606    -0.0001     0.0000     0.0000 </r>
     <r>    33.4807     0.8352     0.8352     0.8030    -0.0001     0.0000     0.0000 </r>
     <r>    34.2623     0.8959     0.8959     0.8569    -0.0001     0.0000     0.0000 </r>
     <r>    35.0748     0.9832     0.9832     0.9312    -0.0000    -0.0000     0.0000 </r>
     <r>    35.9215     1.1049     1.1049     1.0325    -0.0000    -0.0000     0.0000 </r>
     <r>    36.8056     1.0858     1.0858     1.0415    -0.0000    -0.0000     0.0000 </r>
     <r>    37.7305     0.7404     0.7404     0.8324    -0.0000     0.0000     0.0000 </r>
     <r>    38.6997     0.4521     0.4521     0.5966    -0.0000     0.0000     0.0000 </r>
     <r>    39.7177     0.4647     0.4647     0.5063    -0.0000     0.0000     0.0000 </r>
     <r>    40.7891     0.5604     0.5604     0.5491    -0.0000     0.0000     0.0000 </r>
     <r>    41.9197     0.6420     0.6420     0.6363    -0.0000     0.0000     0.0000 </r>
     <r>    43.1151     0.6774     0.6774     0.6724    -0.0000     0.0000     0.0000 </r>
     <r>    44.3827     0.6970     0.6970     0.6914    -0.0000     0.0000     0.0000 </r>
     <r>    45.7298     0.7150     0.7150     0.7131    -0.0000     0.0000     0.0000 </r>
     <r>    47.1657     0.7333     0.7333     0.7331    -0.0000     0.0000     0.0000 </r>
     <r>    48.7003     0.7510     0.7510     0.7504    -0.0000     0.0000     0.0000 </r>
     <r>    50.3454     0.7712     0.7712     0.7707     0.0000     0.0000     0.0000 </r>
     <r>    52.1148     0.7916     0.7916     0.7896     0.0000     0.0000     0.0000 </r>
     <r>    54.0244     0.8098     0.8098     0.8062     0.0000     0.0000    -0.0000 </r>
     <r>    56.0922     0.8258     0.8258     0.8234     0.0000     0.0000    -0.0000 </r>
     <r>    58.3405     0.8433     0.8433     0.8422     0.0000    -0.0000    -0.0000 </r>
     <r>    60.7946     0.8604     0.8604     0.8592     0.0000    -0.0000    -0.0000 </r>
     <r>    63.4854     0.8750     0.8750     0.8739     0.0000     0.0000     0.0000 </r>
     <r>    66.4503     0.8881     0.8881     0.8871     0.0000     0.0000     0.0000 </r>
     <r>    69.7339     0.9000     0.9000     0.8991     0.0000     0.0000     0.0000 </r>
     <r>    73.3912     0.9105     0.9105     0.9098     0.0000     0.0000     0.0000 </r>
     <r>    77.4907     0.9204     0.9204     0.9197    -0.0000     0.0000    -0.0000 </r>
     <r>    82.1179     0.9298     0.9298     0.9291    -0.0000     0.0000    -0.0000 </r>
     <r>    87.3817     0.9386     0.9386     0.9380    -0.0000     0.0000    -0.0000 </r>
     <r>    93.4226     0.9468     0.9468     0.9463     0.0000     0.0000     0.0000 </r>
     <r>   100.4250     0.9543     0.9543     0.9539     0.0000     0.0000     0.0000 </r>
     <r>   108.6360     0.9612     0.9612     0.9609     0.0000     0.0000     0.0000 </r>
     <r>   118.3951     0.9676     0.9676     0.9672     0.0000     0.0000     0.0000 </r>
     <r>   130.1804     0.9733     0.9733     0.9730     0.0000     0.0000     0.0000 </r>
     <r>   144.6882     0.9785     0.9785     0.9783     0.0000     0.0000     0.0000 </r>
     <r>   162.9745     0.9831     0.9831     0.9830     0.0000     0.0000     0.0000 </r>
     <r>   186.7196     0.9872     0.9872     0.9871     0.0000     0.0000     0.0000 </r>
     <r>   218.7720     0.9907     0.9907     0.9906     0.0000     0.0000     0.0000 </r>
    </set>
   </array>
  </real>
 </dielectricfunction>
 <varray name="epsilon_diag_mic" >
  <v>       0.00000000      11.81941234 </v>
  <v>       2.27770697       1.57428067 </v>
  <v>       4.55541394       1.04290592 </v>
  <v>       6.83312090       1.00429001 </v>
  <v>       6.83312090       1.00429001 </v>
  <v>       4.55541394       1.04290592 </v>
  <v>       2.27770697       1.57428067 </v>
  <v>       2.27770697       1.57428067 </v>
  <v>       3.94510419       1.08218434 </v>
  <v>       6.02624620       1.00917262 </v>
  <v>       8.21238926       1.00128623 </v>
  <v>       8.21238926       1.00128623 </v>
  <v>       6.02624620       1.00917262 </v>
  <v>       3.94510419       1.08218433 </v>
  <v>       2.27770697       1.57428064 </v>
  <v>       4.55541394       1.04290592 </v>
  <v>       6.02624620       1.00917262 </v>
  <v>       7.89020839       1.00166207 </v>
  <v>       7.89020839       1.00166207 </v>
  <v>       6.02624620       1.00917262 </v>
  <v>       4.55541394       1.04290592 </v>
  <v>       3.94510419       1.08218433 </v>
  <v>       6.83312090       1.00429001 </v>
  <v>       8.21238926       1.00128623 </v>
  <v>       8.21238926       1.00128623 </v>
  <v>       6.83312090       1.00429001 </v>
  <v>       6.02624620       1.00917262 </v>
  <v>       6.02624620       1.00917262 </v>
  <v>       8.21238926       1.00128623 </v>
  <v>       7.89020839       1.00166207 </v>
  <v>       8.21238926       1.00128623 </v>
  <v>       8.21238926       1.00128623 </v>
  <v>       7.89020839       1.00166207 </v>
  <v>       8.21238926       1.00128623 </v>
  <v>       6.83312090       1.00429001 </v>
  <v>       6.02624620       1.00917262 </v>
  <v>       6.02624620       1.00917262 </v>
  <v>       6.83312090       1.00429001 </v>
  <v>       8.21238926       1.00128623 </v>
  <v>       8.21238926       1.00128623 </v>
  <v>       4.55541394       1.04290592 </v>
  <v>       3.94510419       1.08218433 </v>
  <v>       4.55541394       1.04290592 </v>
  <v>       6.02624620       1.00917262 </v>
  <v>       7.89020839       1.00166207 </v>
  <v>       7.89020839       1.00166207 </v>
  <v>       6.02624620       1.00917262 </v>
  <v>       2.27770697       1.57428067 </v>
  <v>       2.27770697       1.57428064 </v>
  <v>       3.94510419       1.08218433 </v>
  <v>       6.02624620       1.00917262 </v>
  <v>       8.21238926       1.00128623 </v>
  <v>       8.21238926       1.00128623 </v>
  <v>       6.02624620       1.00917262 </v>
  <v>       3.94510419       1.08218434 </v>
  <v>       0.44940785       6.71189962 </v>
  <v>       2.32161936       1.53348195 </v>
  <v>       4.57752810       1.04219446 </v>
  <v>       6.84788352       1.00420628 </v>
  <v>       6.84788352       1.00420628 </v>
  <v>       4.57752810       1.04219446 </v>
  <v>       2.32161936       1.53348194 </v>
  <v>       2.32161936       1.53348194 </v>
  <v>       3.97061891       1.07985055 </v>
  <v>       6.04298028       1.00897614 </v>
  <v>       8.22467658       1.00127750 </v>
  <v>       8.22467658       1.00127750 </v>
  <v>       6.04298028       1.00897614 </v>
  <v>       3.97061891       1.07985054 </v>
  <v>       2.32161936       1.53348192 </v>
  <v>       4.57752810       1.04219446 </v>
  <v>       6.04298028       1.00897614 </v>
  <v>       7.90299663       1.00163994 </v>
  <v>       7.90299663       1.00163994 </v>
  <v>       6.04298028       1.00897614 </v>
  <v>       4.57752810       1.04219446 </v>
  <v>       3.97061891       1.07985054 </v>
  <v>       6.84788352       1.00420628 </v>
  <v>       8.22467658       1.00127750 </v>
  <v>       8.22467658       1.00127750 </v>
  <v>       6.84788352       1.00420628 </v>
  <v>       6.04298028       1.00897614 </v>
  <v>       6.04298028       1.00897614 </v>
  <v>       8.22467658       1.00127750 </v>
  <v>       7.90299663       1.00163994 </v>
  <v>       8.22467658       1.00127750 </v>
  <v>       8.22467658       1.00127750 </v>
  <v>       7.90299663       1.00163994 </v>
  <v>       8.22467658       1.00127750 </v>
  <v>       6.84788352       1.00420628 </v>
  <v>       6.04298028       1.00897614 </v>
  <v>       6.04298028       1.00897614 </v>
  <v>       6.84788352       1.00420628 </v>
  <v>       8.22467658       1.00127750 </v>
  <v>       8.22467658       1.00127750 </v>
  <v>       4.57752810       1.04219446 </v>
  <v>       3.97061891       1.07985054 </v>
  <v>       4.57752810       1.04219446 </v>
  <v>       6.04298028       1.00897614 </v>
  <v>       7.90299663       1.00163994 </v>
  <v>       7.90299663       1.00163994 </v>
  <v>       6.04298028       1.00897614 </v>
  <v>       2.32161936       1.53348195 </v>
  <v>       2.32161936       1.53348191 </v>
  <v>       3.97061891       1.07985054 </v>
  <v>       6.04298028       1.00897614 </v>
  <v>       8.22467658       1.00127750 </v>
  <v>       8.22467658       1.00127750 </v>
  <v>       6.04298028       1.00897614 </v>
  <v>       3.97061891       1.07985055 </v>
  <v>       0.89881570       4.89260520 </v>
  <v>       2.44863609       1.43256674 </v>
  <v>       4.64323872       1.03961400 </v>
  <v>       6.89198164       1.00398371 </v>
  <v>       6.89198164       1.00398371 </v>
  <v>       4.64323872       1.03961399 </v>
  <v>       2.44863609       1.43256671 </v>
  <v>       2.44863609       1.43256671 </v>
  <v>       4.04619782       1.07403479 </v>
  <v>       6.09290677       1.00843001 </v>
  <v>       8.26142888       1.00124695 </v>
  <v>       8.26142888       1.00124695 </v>
  <v>       6.09290677       1.00843001 </v>
  <v>       4.04619782       1.07403478 </v>
  <v>       2.44863609       1.43256672 </v>
  <v>       4.64323872       1.03961399 </v>
  <v>       6.09290677       1.00843001 </v>
  <v>       7.94123781       1.00158132 </v>
  <v>       7.94123781       1.00158132 </v>
  <v>       6.09290677       1.00843001 </v>
  <v>       4.64323872       1.03961400 </v>
  <v>       4.04619782       1.07403478 </v>
  <v>       6.89198164       1.00398371 </v>
  <v>       8.26142888       1.00124695 </v>
  <v>       8.26142888       1.00124695 </v>
  <v>       6.89198164       1.00398371 </v>
  <v>       6.09290677       1.00843001 </v>
  <v>       6.09290677       1.00843001 </v>
  <v>       8.26142888       1.00124695 </v>
  <v>       7.94123781       1.00158132 </v>
  <v>       8.26142888       1.00124695 </v>
  <v>       8.26142888       1.00124695 </v>
  <v>       7.94123781       1.00158132 </v>
  <v>       8.26142888       1.00124695 </v>
  <v>       6.89198164       1.00398371 </v>
  <v>       6.09290677       1.00843001 </v>
  <v>       6.09290677       1.00843001 </v>
  <v>       6.89198164       1.00398371 </v>
  <v>       8.26142888       1.00124695 </v>
  <v>       8.26142888       1.00124695 </v>
  <v>       4.64323872       1.03961400 </v>
  <v>       4.04619782       1.07403478 </v>
  <v>       4.64323872       1.03961399 </v>
  <v>       6.09290677       1.00843001 </v>
  <v>       7.94123781       1.00158132 </v>
  <v>       7.94123781       1.00158132 </v>
  <v>       6.09290677       1.00843001 </v>
  <v>       2.44863609       1.43256674 </v>
  <v>       2.44863609       1.43256668 </v>
  <v>       4.04619782       1.07403478 </v>
  <v>       6.09290677       1.00843001 </v>
  <v>       8.26142888       1.00124695 </v>
  <v>       8.26142888       1.00124695 </v>
  <v>       6.09290677       1.00843001 </v>
  <v>       4.04619782       1.07403479 </v>
  <v>       1.34822355       3.29280754 </v>
  <v>       2.64681994       1.32272401 </v>
  <v>       4.75073709       1.03475315 </v>
  <v>       6.96485808       1.00368601 </v>
  <v>       6.96485808       1.00368601 </v>
  <v>       4.75073709       1.03475315 </v>
  <v>       2.64681994       1.32272398 </v>
  <v>       2.64681994       1.32272398 </v>
  <v>       4.16911907       1.06647832 </v>
  <v>       6.17522064       1.00764324 </v>
  <v>       8.32232204       1.00118531 </v>
  <v>       8.32232204       1.00118531 </v>
  <v>       6.17522064       1.00764324 </v>
  <v>       4.16911907       1.06647831 </v>
  <v>       2.64681994       1.32272400 </v>
  <v>       4.75073709       1.03475315 </v>
  <v>       6.17522064       1.00764324 </v>
  <v>       8.00456714       1.00150498 </v>
  <v>       8.00456714       1.00150498 </v>
  <v>       6.17522064       1.00764324 </v>
  <v>       4.75073709       1.03475315 </v>
  <v>       4.16911907       1.06647831 </v>
  <v>       6.96485808       1.00368601 </v>
  <v>       8.32232204       1.00118531 </v>
  <v>       8.32232204       1.00118531 </v>
  <v>       6.96485808       1.00368601 </v>
  <v>       6.17522064       1.00764324 </v>
  <v>       6.17522064       1.00764324 </v>
  <v>       8.32232204       1.00118531 </v>
  <v>       8.00456714       1.00150498 </v>
  <v>       8.32232204       1.00118531 </v>
  <v>       8.32232204       1.00118531 </v>
  <v>       8.00456714       1.00150498 </v>
  <v>       8.32232204       1.00118531 </v>
  <v>       6.96485808       1.00368601 </v>
  <v>       6.17522064       1.00764324 </v>
  <v>       6.17522064       1.00764324 </v>
  <v>       6.96485808       1.00368601 </v>
  <v>       8.32232204       1.00118531 </v>
  <v>       8.32232204       1.00118531 </v>
  <v>       4.75073709       1.03475315 </v>
  <v>       4.16911907       1.06647831 </v>
  <v>       4.75073709       1.03475314 </v>
  <v>       6.17522064       1.00764324 </v>
  <v>       8.00456714       1.00150498 </v>
  <v>       8.00456714       1.00150498 </v>
  <v>       6.17522064       1.00764324 </v>
  <v>       2.64681994       1.32272401 </v>
  <v>       2.64681994       1.32272397 </v>
  <v>       4.16911907       1.06647831 </v>
  <v>       6.17522064       1.00764324 </v>
  <v>       8.32232204       1.00118531 </v>
  <v>       8.32232204       1.00118531 </v>
  <v>       6.17522064       1.00764324 </v>
  <v>       4.16911907       1.06647832 </v>
  <v>       1.79763140       2.22975116 </v>
  <v>       2.90162501       1.23704128 </v>
  <v>       4.89727218       1.02853138 </v>
  <v>       7.06562240       1.00334799 </v>
  <v>       7.06562240       1.00334799 </v>
  <v>       4.89727218       1.02853138 </v>
  <v>       2.90162501       1.23704128 </v>
  <v>       2.90162501       1.23704128 </v>
  <v>       4.33535763       1.05705568 </v>
  <v>       6.28865024       1.00674567 </v>
  <v>       6.28865024       1.00674567 </v>
  <v>       4.33535763       1.05705568 </v>
  <v>       2.90162501       1.23704128 </v>
  <v>       4.89727218       1.02853138 </v>
  <v>       6.28865024       1.00674567 </v>
  <v>       8.09239563       1.00141625 </v>
  <v>       8.09239563       1.00141625 </v>
  <v>       6.28865024       1.00674567 </v>
  <v>       4.89727218       1.02853138 </v>
  <v>       4.33535763       1.05705568 </v>
  <v>       7.06562240       1.00334799 </v>
  <v>       7.06562240       1.00334799 </v>
  <v>       6.28865024       1.00674567 </v>
  <v>       6.28865024       1.00674567 </v>
  <v>       8.09239563       1.00141625 </v>
  <v>       8.09239563       1.00141625 </v>
  <v>       7.06562240       1.00334799 </v>
  <v>       6.28865024       1.00674567 </v>
  <v>       6.28865024       1.00674567 </v>
  <v>       7.06562240       1.00334799 </v>
  <v>       4.89727218       1.02853138 </v>
  <v>       4.33535763       1.05705568 </v>
  <v>       4.89727218       1.02853138 </v>
  <v>       6.28865024       1.00674567 </v>
  <v>       8.09239563       1.00141625 </v>
  <v>       8.09239563       1.00141625 </v>
  <v>       6.28865024       1.00674567 </v>
  <v>       2.90162501       1.23704128 </v>
  <v>       2.90162501       1.23704128 </v>
  <v>       4.33535763       1.05705568 </v>
  <v>       6.28865024       1.00674567 </v>
  <v>       6.28865024       1.00674567 </v>
  <v>       4.33535763       1.05705568 </v>
  <v>       2.24703926       1.63716160 </v>
  <v>       3.19955223       1.17555405 </v>
  <v>       5.07946666       1.02260323 </v>
  <v>       7.19310272       1.00298098 </v>
  <v>       7.19310272       1.00298097 </v>
  <v>       5.07946666       1.02260322 </v>
  <v>       3.19955223       1.17555409 </v>
  <v>       3.19955223       1.17555409 </v>
  <v>       4.54015776       1.04566033 </v>
  <v>       6.43154947       1.00583089 </v>
  <v>       6.43154947       1.00583089 </v>
  <v>       4.54015776       1.04566032 </v>
  <v>       3.19955223       1.17555406 </v>
  <v>       5.07946666       1.02260322 </v>
  <v>       6.43154947       1.00583089 </v>
  <v>       8.20393648       1.00130803 </v>
  <v>       8.20393648       1.00130803 </v>
  <v>       6.43154947       1.00583089 </v>
  <v>       5.07946666       1.02260323 </v>
  <v>       4.54015776       1.04566032 </v>
  <v>       7.19310272       1.00298097 </v>
  <v>       7.19310272       1.00298098 </v>
  <v>       6.43154947       1.00583089 </v>
  <v>       6.43154947       1.00583089 </v>
  <v>       8.20393648       1.00130803 </v>
  <v>       8.20393648       1.00130803 </v>
  <v>       7.19310272       1.00298098 </v>
  <v>       6.43154947       1.00583089 </v>
  <v>       6.43154947       1.00583089 </v>
  <v>       7.19310272       1.00298097 </v>
  <v>       5.07946666       1.02260323 </v>
  <v>       4.54015776       1.04566032 </v>
  <v>       5.07946666       1.02260322 </v>
  <v>       6.43154947       1.00583089 </v>
  <v>       8.20393648       1.00130803 </v>
  <v>       8.20393648       1.00130803 </v>
  <v>       6.43154947       1.00583089 </v>
  <v>       3.19955223       1.17555405 </v>
  <v>       3.19955223       1.17555409 </v>
  <v>       4.54015776       1.04566032 </v>
  <v>       6.43154947       1.00583089 </v>
  <v>       6.43154947       1.00583089 </v>
  <v>       4.54015776       1.04566033 </v>
  <v>       2.69644711       1.33578186 </v>
  <v>       3.52969914       1.12902068 </v>
  <v>       5.29363987       1.01789307 </v>
  <v>       7.34590827       1.00260030 </v>
  <v>       7.34590827       1.00260030 </v>
  <v>       5.29363987       1.01789307 </v>
  <v>       3.52969914       1.12902071 </v>
  <v>       3.52969914       1.12902071 </v>
  <v>       4.77856402       1.03412507 </v>
  <v>       6.60200501       1.00495671 </v>
  <v>       6.60200501       1.00495671 </v>
  <v>       4.77856402       1.03412507 </v>
  <v>       3.52969914       1.12902068 </v>
  <v>       5.29363987       1.01789307 </v>
  <v>       6.60200501       1.00495671 </v>
  <v>       8.33823815       1.00117332 </v>
  <v>       8.33823815       1.00117332 </v>
  <v>       6.60200501       1.00495671 </v>
  <v>       5.29363987       1.01789307 </v>
  <v>       4.77856402       1.03412507 </v>
  <v>       7.34590827       1.00260030 </v>
  <v>       7.34590827       1.00260030 </v>
  <v>       6.60200501       1.00495671 </v>
  <v>       6.60200501       1.00495671 </v>
  <v>       8.33823815       1.00117332 </v>
  <v>       8.33823815       1.00117332 </v>
  <v>       7.34590827       1.00260030 </v>
  <v>       6.60200501       1.00495671 </v>
  <v>       6.60200501       1.00495671 </v>
  <v>       7.34590827       1.00260030 </v>
  <v>       5.29363987       1.01789307 </v>
  <v>       4.77856402       1.03412507 </v>
  <v>       5.29363987       1.01789307 </v>
  <v>       6.60200501       1.00495671 </v>
  <v>       8.33823815       1.00117332 </v>
  <v>       8.33823815       1.00117332 </v>
  <v>       6.60200501       1.00495671 </v>
  <v>       3.52969914       1.12902068 </v>
  <v>       3.52969914       1.12902071 </v>
  <v>       4.77856402       1.03412507 </v>
  <v>       6.60200501       1.00495671 </v>
  <v>       6.60200501       1.00495671 </v>
  <v>       4.77856402       1.03412507 </v>
  <v>       3.14585496       1.18810080 </v>
  <v>       3.88385793       1.09149619 </v>
  <v>       5.53608161       1.01414308 </v>
  <v>       7.52249591       1.00223544 </v>
  <v>       7.52249591       1.00223544 </v>
  <v>       5.53608161       1.01414308 </v>
  <v>       3.88385793       1.09149620 </v>
  <v>       3.88385793       1.09149620 </v>
  <v>       5.04581515       1.02461247 </v>
  <v>       6.79794429       1.00415424 </v>
  <v>       6.79794429       1.00415424 </v>
  <v>       5.04581515       1.02461247 </v>
  <v>       3.88385793       1.09149619 </v>
  <v>       5.53608161       1.01414308 </v>
  <v>       6.79794429       1.00415424 </v>
  <v>       6.79794429       1.00415424 </v>
  <v>       5.53608161       1.01414308 </v>
  <v>       5.04581515       1.02461247 </v>
  <v>       7.52249591       1.00223544 </v>
  <v>       7.52249591       1.00223544 </v>
  <v>       6.79794429       1.00415424 </v>
  <v>       6.79794429       1.00415424 </v>
  <v>       7.52249591       1.00223544 </v>
  <v>       6.79794429       1.00415424 </v>
  <v>       6.79794429       1.00415424 </v>
  <v>       7.52249591       1.00223544 </v>
  <v>       5.53608161       1.01414308 </v>
  <v>       5.04581515       1.02461247 </v>
  <v>       5.53608161       1.01414308 </v>
  <v>       6.79794429       1.00415424 </v>
  <v>       6.79794429       1.00415424 </v>
  <v>       3.88385793       1.09149619 </v>
  <v>       3.88385793       1.09149620 </v>
  <v>       5.04581515       1.02461247 </v>
  <v>       6.79794429       1.00415424 </v>
  <v>       6.79794429       1.00415424 </v>
  <v>       5.04581515       1.02461247 </v>
  <v>       3.59526281       1.11284783 </v>
  <v>       4.25603850       1.06170741 </v>
  <v>       5.80325002       1.01083596 </v>
  <v>       7.72123409       1.00189973 </v>
  <v>       7.72123409       1.00189972 </v>
  <v>       5.80325002       1.01083596 </v>
  <v>       4.25603850       1.06170741 </v>
  <v>       4.25603850       1.06170741 </v>
  <v>       5.33758014       1.01765850 </v>
  <v>       7.01723292       1.00344031 </v>
  <v>       7.01723292       1.00344031 </v>
  <v>       5.33758014       1.01765850 </v>
  <v>       4.25603850       1.06170741 </v>
  <v>       5.80325002       1.01083596 </v>
  <v>       7.01723292       1.00344031 </v>
  <v>       7.01723292       1.00344031 </v>
  <v>       5.80325002       1.01083596 </v>
  <v>       5.33758014       1.01765850 </v>
  <v>       7.72123409       1.00189972 </v>
  <v>       7.72123409       1.00189973 </v>
  <v>       7.01723292       1.00344031 </v>
  <v>       7.01723292       1.00344031 </v>
  <v>       7.72123409       1.00189973 </v>
  <v>       7.01723292       1.00344031 </v>
  <v>       7.01723292       1.00344031 </v>
  <v>       7.72123409       1.00189972 </v>
  <v>       5.80325002       1.01083596 </v>
  <v>       5.33758014       1.01765850 </v>
  <v>       5.80325002       1.01083596 </v>
  <v>       7.01723292       1.00344031 </v>
  <v>       7.01723292       1.00344031 </v>
  <v>       4.25603850       1.06170741 </v>
  <v>       4.25603850       1.06170741 </v>
  <v>       5.33758014       1.01765850 </v>
  <v>       7.01723292       1.00344031 </v>
  <v>       7.01723292       1.00344031 </v>
  <v>       5.33758014       1.01765850 </v>
  <v>       4.04467066       1.07066797 </v>
  <v>       4.64190799       1.03996926 </v>
  <v>       6.09189272       1.00794919 </v>
  <v>       7.94045981       1.00159040 </v>
  <v>       7.94045981       1.00159040 </v>
  <v>       6.09189272       1.00794919 </v>
  <v>       4.64190799       1.03996926 </v>
  <v>       4.64190799       1.03996926 </v>
  <v>       5.65006264       1.01270417 </v>
  <v>       7.25775475       1.00281860 </v>
  <v>       7.25775475       1.00281860 </v>
  <v>       5.65006264       1.01270417 </v>
  <v>       4.64190799       1.03996926 </v>
  <v>       6.09189272       1.00794919 </v>
  <v>       7.25775475       1.00281860 </v>
  <v>       7.25775475       1.00281860 </v>
  <v>       6.09189272       1.00794919 </v>
  <v>       5.65006264       1.01270417 </v>
  <v>       7.94045981       1.00159040 </v>
  <v>       7.94045981       1.00159040 </v>
  <v>       7.25775475       1.00281860 </v>
  <v>       7.25775475       1.00281860 </v>
  <v>       7.94045981       1.00159040 </v>
  <v>       7.25775475       1.00281860 </v>
  <v>       7.25775475       1.00281860 </v>
  <v>       7.94045981       1.00159040 </v>
  <v>       6.09189272       1.00794919 </v>
  <v>       5.65006264       1.01270417 </v>
  <v>       6.09189272       1.00794919 </v>
  <v>       7.25775475       1.00281860 </v>
  <v>       7.25775475       1.00281860 </v>
  <v>       4.64190799       1.03996926 </v>
  <v>       4.64190799       1.03996926 </v>
  <v>       5.65006264       1.01270417 </v>
  <v>       7.25775475       1.00281860 </v>
  <v>       7.25775475       1.00281860 </v>
  <v>       5.65006264       1.01270417 </v>
  <v>       4.49407851       1.04388771 </v>
  <v>       5.03832221       1.02535954 </v>
  <v>       6.39910445       1.00574959 </v>
  <v>       8.17852572       1.00129822 </v>
  <v>       8.17852572       1.00129822 </v>
  <v>       6.39910445       1.00574959 </v>
  <v>       5.03832221       1.02535953 </v>
  <v>       5.03832221       1.02535953 </v>
  <v>       5.98001578       1.00911795 </v>
  <v>       7.51747197       1.00228318 </v>
  <v>       7.51747197       1.00228318 </v>
  <v>       5.98001578       1.00911795 </v>
  <v>       5.03832221       1.02535954 </v>
  <v>       6.39910445       1.00574959 </v>
  <v>       7.51747197       1.00228318 </v>
  <v>       7.51747197       1.00228318 </v>
  <v>       6.39910445       1.00574959 </v>
  <v>       5.98001578       1.00911795 </v>
  <v>       8.17852572       1.00129822 </v>
  <v>       8.17852572       1.00129822 </v>
  <v>       7.51747197       1.00228318 </v>
  <v>       7.51747197       1.00228318 </v>
  <v>       8.17852572       1.00129822 </v>
  <v>       7.51747197       1.00228318 </v>
  <v>       7.51747197       1.00228318 </v>
  <v>       8.17852572       1.00129822 </v>
  <v>       6.39910445       1.00574959 </v>
  <v>       5.98001578       1.00911795 </v>
  <v>       6.39910445       1.00574959 </v>
  <v>       7.51747197       1.00228318 </v>
  <v>       7.51747197       1.00228318 </v>
  <v>       5.03832221       1.02535954 </v>
  <v>       5.03832221       1.02535953 </v>
  <v>       5.98001578       1.00911795 </v>
  <v>       7.51747197       1.00228318 </v>
  <v>       7.51747197       1.00228318 </v>
  <v>       5.98001578       1.00911795 </v>
  <v>       4.94348636       1.02643458 </v>
  <v>       5.44297772       1.01602480 </v>
  <v>       6.72233989       1.00426753 </v>
  <v>       6.72233989       1.00426752 </v>
  <v>       5.44297772       1.01602480 </v>
  <v>       5.44297772       1.01602480 </v>
  <v>       6.32470588       1.00651650 </v>
  <v>       7.79446603       1.00181918 </v>
  <v>       7.79446603       1.00181918 </v>
  <v>       6.32470588       1.00651650 </v>
  <v>       5.44297772       1.01602480 </v>
  <v>       6.72233989       1.00426752 </v>
  <v>       7.79446603       1.00181918 </v>
  <v>       7.79446603       1.00181918 </v>
  <v>       6.72233989       1.00426753 </v>
  <v>       6.32470588       1.00651650 </v>
  <v>       7.79446603       1.00181918 </v>
  <v>       7.79446603       1.00181918 </v>
  <v>       7.79446603       1.00181918 </v>
  <v>       7.79446603       1.00181918 </v>
  <v>       6.72233989       1.00426753 </v>
  <v>       6.32470588       1.00651650 </v>
  <v>       6.72233989       1.00426752 </v>
  <v>       7.79446603       1.00181918 </v>
  <v>       7.79446603       1.00181918 </v>
  <v>       5.44297772       1.01602480 </v>
  <v>       5.44297772       1.01602480 </v>
  <v>       6.32470588       1.00651650 </v>
  <v>       7.79446603       1.00181918 </v>
  <v>       7.79446603       1.00181918 </v>
  <v>       6.32470588       1.00651650 </v>
  <v>       5.39289421       1.01572124 </v>
  <v>       5.85416579       1.01021999 </v>
  <v>       7.05939828       1.00327220 </v>
  <v>       7.05939828       1.00327219 </v>
  <v>       5.85416579       1.01021999 </v>
  <v>       5.85416579       1.01021999 </v>
  <v>       6.68185267       1.00466415 </v>
  <v>       8.08696180       1.00141738 </v>
  <v>       8.08696180       1.00141738 </v>
  <v>       6.68185267       1.00466415 </v>
  <v>       5.85416579       1.01021999 </v>
  <v>       7.05939828       1.00327219 </v>
  <v>       8.08696180       1.00141738 </v>
  <v>       8.08696180       1.00141738 </v>
  <v>       7.05939828       1.00327220 </v>
  <v>       6.68185267       1.00466415 </v>
  <v>       8.08696180       1.00141738 </v>
  <v>       8.08696180       1.00141738 </v>
  <v>       8.08696180       1.00141738 </v>
  <v>       8.08696180       1.00141738 </v>
  <v>       7.05939828       1.00327220 </v>
  <v>       6.68185267       1.00466415 </v>
  <v>       7.05939828       1.00327219 </v>
  <v>       8.08696180       1.00141738 </v>
  <v>       8.08696180       1.00141738 </v>
  <v>       5.85416579       1.01021999 </v>
  <v>       5.85416579       1.01021999 </v>
  <v>       6.68185267       1.00466415 </v>
  <v>       8.08696180       1.00141738 </v>
  <v>       8.08696180       1.00141738 </v>
  <v>       6.68185267       1.00466415 </v>
  <v>       5.84230207       1.00963919 </v>
  <v>       6.27060144       1.00664811 </v>
  <v>       7.40839318       1.00251351 </v>
  <v>       7.40839318       1.00251351 </v>
  <v>       6.27060144       1.00664811 </v>
  <v>       6.27060144       1.00664811 </v>
  <v>       7.04956314       1.00337620 </v>
  <v>       7.04956314       1.00337620 </v>
  <v>       6.27060144       1.00664811 </v>
  <v>       7.40839318       1.00251351 </v>
  <v>       7.40839318       1.00251351 </v>
  <v>       7.04956314       1.00337620 </v>
  <v>       7.40839318       1.00251351 </v>
  <v>       7.04956314       1.00337620 </v>
  <v>       7.40839318       1.00251351 </v>
  <v>       6.27060144       1.00664811 </v>
  <v>       6.27060144       1.00664811 </v>
  <v>       7.04956314       1.00337620 </v>
  <v>       7.04956314       1.00337620 </v>
  <v>       6.29170992       1.00612403 </v>
  <v>       6.69130501       1.00442278 </v>
  <v>       7.76771587       1.00188003 </v>
  <v>       7.76771587       1.00188003 </v>
  <v>       6.69130501       1.00442277 </v>
  <v>       6.69130501       1.00442277 </v>
  <v>       7.42626829       1.00247082 </v>
  <v>       7.42626829       1.00247082 </v>
  <v>       6.69130501       1.00442278 </v>
  <v>       7.76771587       1.00188003 </v>
  <v>       7.76771587       1.00188003 </v>
  <v>       7.42626829       1.00247082 </v>
  <v>       7.76771587       1.00188003 </v>
  <v>       7.42626829       1.00247082 </v>
  <v>       7.76771587       1.00188003 </v>
  <v>       6.69130501       1.00442278 </v>
  <v>       6.69130501       1.00442277 </v>
  <v>       7.42626829       1.00247082 </v>
  <v>       7.42626829       1.00247082 </v>
  <v>       6.74111777       1.00394935 </v>
  <v>       7.11551950       1.00299471 </v>
  <v>       8.13599809       1.00135857 </v>
  <v>       8.13599809       1.00135857 </v>
  <v>       7.11551950       1.00299471 </v>
  <v>       7.11551950       1.00299471 </v>
  <v>       7.81066680       1.00180466 </v>
  <v>       7.81066680       1.00180466 </v>
  <v>       7.11551950       1.00299471 </v>
  <v>       8.13599809       1.00135857 </v>
  <v>       8.13599809       1.00135857 </v>
  <v>       7.81066680       1.00180466 </v>
  <v>       8.13599809       1.00135857 </v>
  <v>       7.81066680       1.00180466 </v>
  <v>       8.13599809       1.00135857 </v>
  <v>       7.11551950       1.00299471 </v>
  <v>       7.11551950       1.00299471 </v>
  <v>       7.81066680       1.00180466 </v>
  <v>       7.81066680       1.00180466 </v>
  <v>       7.19052562       1.00258487 </v>
[...]
       <r>    19.1375     6.9967    91.8765 </r>
       <r>    19.1682     6.8214    92.0860 </r>
       <r>    19.1989     7.2920    92.3099 </r>
       <r>    19.2296     6.2555    92.5020 </r>
       <r>    19.2603     4.1884    92.6306 </r>
       <r>    19.2910     2.9249    92.7204 </r>
       <r>    19.3217     3.2996    92.8218 </r>
       <r>    19.3524     5.2867    92.9841 </r>
       <r>    19.3831     7.7761    93.2229 </r>
       <r>    19.4138     8.5933    93.4868 </r>
       <r>    19.4446     8.1059    93.7357 </r>
       <r>    19.4753     7.3708    93.9621 </r>
       <r>    19.5060     6.0144    94.1468 </r>
       <r>    19.5367     4.9495    94.2988 </r>
       <r>    19.5674     5.1966    94.4583 </r>
       <r>    19.5981     7.0540    94.6750 </r>
       <r>    19.6288     9.7173    94.9734 </r>
       <r>    19.6595     9.8052    95.2745 </r>
       <r>    19.6902     6.7454    95.4816 </r>
       <r>    19.7209     4.4137    95.6172 </r>
       <r>    19.7516     3.9799    95.7394 </r>
       <r>    19.7823     3.6511    95.8515 </r>
       <r>    19.8131     2.8620    95.9394 </r>
       <r>    19.8438     2.4451    96.0145 </r>
       <r>    19.8745     3.2228    96.1134 </r>
       <r>    19.9052     4.8547    96.2625 </r>
       <r>    19.9359     5.7148    96.4380 </r>
       <r>    19.9666     5.2232    96.5984 </r>
       <r>    19.9973     5.0486    96.7534 </r>
       <r>    20.0280     6.2017    96.9439 </r>
       <r>    20.0587     7.3222    97.1687 </r>
       <r>    20.0894     6.7145    97.3749 </r>
       <r>    20.1201     5.0047    97.5286 </r>
       <r>    20.1509     3.9574    97.6502 </r>
       <r>    20.1816     4.5840    97.7909 </r>
       <r>    20.2123     5.5691    97.9619 </r>
       <r>    20.2430     5.4947    98.1307 </r>
       <r>    20.2737     6.4408    98.3285 </r>
       <r>    20.3044     8.4087    98.5867 </r>
       <r>    20.3351     8.1536    98.8371 </r>
       <r>    20.3658     5.5656    99.0080 </r>
       <r>    20.3965     3.3972    99.1123 </r>
       <r>    20.4272     2.6625    99.1941 </r>
       <r>    20.4579     2.7063    99.2772 </r>
       <r>    20.4886     3.4744    99.3839 </r>
       <r>    20.5194     4.4233    99.5197 </r>
       <r>    20.5501     4.1002    99.6456 </r>
       <r>    20.5808     3.3385    99.7481 </r>
       <r>    20.6115     4.1432    99.8754 </r>
       <r>    20.6422     6.4076   100.0721 </r>
       <r>    20.6729     8.6426   100.3375 </r>
       <r>    20.7036     8.4975   100.5985 </r>
       <r>    20.7343     5.8550   100.7783 </r>
       <r>    20.7650     3.6188   100.8894 </r>
       <r>    20.7957     2.5892   100.9689 </r>
       <r>    20.8264     2.2167   101.0370 </r>
       <r>    20.8572     2.1758   101.1038 </r>
       <r>    20.8879     1.8464   101.1605 </r>
       <r>    20.9186     2.0122   101.2223 </r>
       <r>    20.9493     3.2713   101.3228 </r>
       <r>    20.9800     4.4220   101.4586 </r>
       <r>    21.0107     4.4863   101.5963 </r>
       <r>    21.0414     3.2655   101.6966 </r>
       <r>    21.0721     1.7334   101.7498 </r>
       <r>    21.1028     1.4281   101.7937 </r>
       <r>    21.1335     1.8659   101.8510 </r>
       <r>    21.1642     1.6299   101.9010 </r>
       <r>    21.1949     1.2443   101.9393 </r>
       <r>    21.2257     1.8697   101.9967 </r>
       <r>    21.2564     2.8044   102.0828 </r>
       <r>    21.2871     2.3957   102.1564 </r>
       <r>    21.3178     1.2089   102.1935 </r>
       <r>    21.3485     1.0242   102.2249 </r>
       <r>    21.3792     1.7989   102.2802 </r>
       <r>    21.4099     2.2670   102.3498 </r>
       <r>    21.4406     2.3729   102.4227 </r>
       <r>    21.4713     2.8889   102.5114 </r>
       <r>    21.5020     3.6350   102.6230 </r>
       <r>    21.5327     4.1464   102.7503 </r>
       <r>    21.5635     4.0047   102.8733 </r>
       <r>    21.5942     3.1383   102.9697 </r>
       <r>    21.6249     2.7393   103.0538 </r>
       <r>    21.6556     3.5172   103.1618 </r>
       <r>    21.6863     3.7180   103.2760 </r>
       <r>    21.7170     2.4545   103.3514 </r>
       <r>    21.7477     1.6605   103.4024 </r>
       <r>    21.7784     1.9228   103.4614 </r>
       <r>    21.8091     2.3358   103.5331 </r>
       <r>    21.8398     2.5978   103.6129 </r>
       <r>    21.8705     2.9996   103.7050 </r>
       <r>    21.9013     4.9292   103.8564 </r>
       <r>    21.9320     8.2021   104.1083 </r>
       <r>    21.9627    10.3548   104.4262 </r>
       <r>    21.9934    10.0236   104.7341 </r>
       <r>    22.0241     7.1422   104.9534 </r>
       <r>    22.0548     3.5930   105.0637 </r>
       <r>    22.0855     1.7055   105.1161 </r>
       <r>    22.1162     1.5566   105.1639 </r>
       <r>    22.1469     2.4402   105.2388 </r>
       <r>    22.1776     4.2638   105.3698 </r>
       <r>    22.2083     5.8840   105.5505 </r>
       <r>    22.2390     6.2411   105.7421 </r>
       <r>    22.2698     6.6192   105.9454 </r>
       <r>    22.3005     7.3199   106.1702 </r>
       <r>    22.3312     6.7185   106.3765 </r>
       <r>    22.3619     5.1871   106.5358 </r>
       <r>    22.3926     4.6314   106.6780 </r>
       <r>    22.4233     4.7509   106.8239 </r>
       <r>    22.4540     4.4053   106.9592 </r>
       <r>    22.4847     4.1209   107.0857 </r>
       <r>    22.5154     3.8741   107.2047 </r>
       <r>    22.5461     3.3157   107.3065 </r>
       <r>    22.5768     3.7422   107.4214 </r>
       <r>    22.6076     4.7979   107.5688 </r>
       <r>    22.6383     4.3520   107.7024 </r>
       <r>    22.6690     3.9248   107.8229 </r>
       <r>    22.6997     4.9077   107.9736 </r>
       <r>    22.7304     4.7588   108.1198 </r>
       <r>    22.7611     2.8370   108.2069 </r>
       <r>    22.7918     1.6884   108.2588 </r>
       <r>    22.8225     2.7125   108.3420 </r>
       <r>    22.8532     4.2912   108.4738 </r>
       <r>    22.8839     4.1516   108.6013 </r>
       <r>    22.9146     3.3759   108.7050 </r>
       <r>    22.9453     3.7110   108.8189 </r>
       <r>    22.9761     4.0208   108.9424 </r>
       <r>    23.0068     3.6794   109.0554 </r>
       <r>    23.0375     3.6992   109.1690 </r>
       <r>    23.0682     3.8417   109.2870 </r>
       <r>    23.0989     3.2146   109.3857 </r>
       <r>    23.1296     2.4023   109.4595 </r>
       <r>    23.1603     2.9448   109.5499 </r>
       <r>    23.1910     4.5556   109.6898 </r>
       <r>    23.2217     5.1879   109.8491 </r>
       <r>    23.2524     5.1117   110.0061 </r>
       <r>    23.2831     5.3008   110.1689 </r>
       <r>    23.3139     4.9033   110.3194 </r>
       <r>    23.3446     4.8315   110.4678 </r>
       <r>    23.3753     5.2184   110.6281 </r>
       <r>    23.4060     4.7624   110.7743 </r>
       <r>    23.4367     4.8267   110.9225 </r>
       <r>    23.4674     6.3494   111.1175 </r>
       <r>    23.4981     7.0453   111.3339 </r>
       <r>    23.5288     5.5972   111.5057 </r>
       <r>    23.5595     4.1589   111.6335 </r>
       <r>    23.5902     3.8065   111.7504 </r>
       <r>    23.6209     3.9771   111.8725 </r>
       <r>    23.6516     4.8530   112.0215 </r>
       <r>    23.6824     6.5323   112.2221 </r>
       <r>    23.7131     8.3751   112.4793 </r>
       <r>    23.7438     9.5802   112.7735 </r>
       <r>    23.7745     9.9537   113.0792 </r>
       <r>    23.8052     9.7262   113.3778 </r>
       <r>    23.8359     9.7799   113.6782 </r>
       <r>    23.8666    11.2348   114.0232 </r>
       <r>    23.8973    11.9419   114.3899 </r>
       <r>    23.9280     9.8043   114.6910 </r>
       <r>    23.9587     6.3021   114.8845 </r>
       <r>    23.9894     4.8118   115.0323 </r>
       <r>    24.0202     6.3653   115.2277 </r>
       <r>    24.0509     8.0057   115.4736 </r>
       <r>    24.0816     8.2649   115.7274 </r>
       <r>    24.1123     8.3527   115.9839 </r>
       <r>    24.1430     7.9899   116.2292 </r>
       <r>    24.1737     5.8278   116.4082 </r>
       <r>    24.2044     3.3573   116.5113 </r>
       <r>    24.2351     3.6619   116.6238 </r>
       <r>    24.2658     6.7166   116.8300 </r>
       <r>    24.2965     9.0437   117.1077 </r>
       <r>    24.3272     9.7391   117.4068 </r>
       <r>    24.3579     9.4991   117.6985 </r>
       <r>    24.3887     7.3237   117.9234 </r>
       <r>    24.4194     5.7879   118.1012 </r>
       <r>    24.4501     6.6652   118.3058 </r>
       <r>    24.4808     7.2115   118.5273 </r>
       <r>    24.5115     6.2327   118.7187 </r>
       <r>    24.5422     4.9283   118.8700 </r>
       <r>    24.5729     5.3302   119.0337 </r>
       <r>    24.6036     8.0039   119.2795 </r>
       <r>    24.6343    10.2056   119.5929 </r>
       <r>    24.6650     9.2570   119.8772 </r>
       <r>    24.6957     5.9444   120.0597 </r>
       <r>    24.7265     3.1307   120.1559 </r>
       <r>    24.7572     2.3584   120.2283 </r>
       <r>    24.7879     3.3853   120.3322 </r>
       <r>    24.8186     4.8550   120.4813 </r>
       <r>    24.8493     5.5354   120.6513 </r>
       <r>    24.8800     6.1252   120.8394 </r>
       <r>    24.9107     7.5363   121.0709 </r>
       <r>    24.9414     9.4504   121.3611 </r>
       <r>    24.9721    11.2116   121.7054 </r>
       <r>    25.0028    11.9482   122.0723 </r>
       <r>    25.0335    10.8080   122.4042 </r>
       <r>    25.0642     8.1389   122.6541 </r>
       <r>    25.0950     6.0550   122.8400 </r>
       <r>    25.1257     6.1585   123.0292 </r>
       <r>    25.1564     6.3510   123.2242 </r>
       <r>    25.1871     4.6034   123.3656 </r>
       <r>    25.2178     2.6829   123.4479 </r>
       <r>    25.2485     2.4064   123.5218 </r>
       <r>    25.2792     3.4563   123.6280 </r>
       <r>    25.3099     4.5127   123.7666 </r>
       <r>    25.3406     4.7576   123.9127 </r>
       <r>    25.3713     4.7526   124.0586 </r>
       <r>    25.4020     4.9892   124.2118 </r>
       <r>    25.4328     5.2147   124.3720 </r>
       <r>    25.4635     6.0545   124.5579 </r>
       <r>    25.4942     6.7496   124.7652 </r>
       <r>    25.5249     5.8883   124.9460 </r>
       <r>    25.5556     4.2353   125.0760 </r>
       <r>    25.5863     3.4058   125.1806 </r>
       <r>    25.6170     3.6268   125.2920 </r>
       <r>    25.6477     3.8000   125.4087 </r>
       <r>    25.6784     3.7192   125.5229 </r>
       <r>    25.7091     4.8401   125.6715 </r>
       <r>    25.7398     7.8302   125.9120 </r>
       <r>    25.7706     9.5107   126.2041 </r>
       <r>    25.8013     7.8516   126.4452 </r>
       <r>    25.8320     5.5618   126.6160 </r>
       <r>    25.8627     4.8894   126.7661 </r>
       <r>    25.8934     4.3199   126.8988 </r>
       <r>    25.9241     2.7972   126.9847 </r>
       <r>    25.9548     2.2911   127.0550 </r>
       <r>    25.9855     3.5526   127.1641 </r>
       <r>    26.0162     4.5063   127.3025 </r>
       <r>    26.0469     4.3823   127.4371 </r>
       <r>    26.0776     4.3586   127.5709 </r>
       <r>    26.1083     4.4748   127.7083 </r>
       <r>    26.1391     4.5555   127.8482 </r>
       <r>    26.1698     5.9851   128.0320 </r>
       <r>    26.2005     7.5733   128.2646 </r>
       <r>    26.2312     6.4500   128.4627 </r>
       <r>    26.2619     4.1650   128.5906 </r>
       <r>    26.2926     2.7057   128.6737 </r>
       <r>    26.3233     2.0313   128.7360 </r>
       <r>    26.3540     2.0842   128.8000 </r>
       <r>    26.3847     2.4918   128.8766 </r>
       <r>    26.4154     2.8343   128.9636 </r>
       <r>    26.4461     3.4687   129.0701 </r>
       <r>    26.4769     4.3487   129.2037 </r>
       <r>    26.5076     5.1440   129.3616 </r>
       <r>    26.5383     5.0826   129.5177 </r>
       <r>    26.5690     3.5895   129.6279 </r>
       <r>    26.5997     1.9155   129.6868 </r>
       <r>    26.6304     0.8495   129.7128 </r>
       <r>    26.6611     0.2848   129.7216 </r>
       <r>    26.6918     0.2608   129.7296 </r>
       <r>    26.7225     0.9635   129.7592 </r>
       <r>    26.7532     2.2622   129.8287 </r>
       <r>    26.7839     2.8564   129.9164 </r>
       <r>    26.8146     1.9181   129.9753 </r>
       <r>    26.8454     0.6731   129.9959 </r>
       <r>    26.8761     0.1209   129.9997 </r>
       <r>    26.9068     0.0109   130.0000 </r>
       <r>    26.9375     0.0005   130.0000 </r>
       <r>    26.9682     0.0000   130.0000 </r>
       <r>    26.9989     0.0000   130.0000 </r>
       <r>    27.0296     0.0000   130.0000 </r>
       <r>    27.0603     0.0000   130.0000 </r>
       <r>    27.0910     0.0000   130.0000 </r>
       <r>    27.1217     0.0000   130.0000 </r>
       <r>    27.1524     0.0000   130.0000 </r>
       <r>    27.1832     0.0000   130.0000 </r>
       <r>    27.2139     0.0000   130.0000 </r>
       <r>    27.2446     0.0000   130.0000 </r>
       <r>    27.2753     0.0000   130.0000 </r>
       <r>    27.3060     0.0000   130.0000 </r>
       <r>    27.3367     0.0000   130.0000 </r>
       <r>    27.3674     0.0000   130.0000 </r>
       <r>    27.3981     0.0000   130.0000 </r>
       <r>    27.4288     0.0000   130.0000 </r>
       <r>    27.4595     0.0000   130.0000 </r>
       <r>    27.4902     0.0000   130.0000 </r>
       <r>    27.5209     0.0000   130.0000 </r>
       <r>    27.5517     0.0000   130.0000 </r>
       <r>    27.5824     0.0000   130.0000 </r>
       <r>    27.6131     0.0000   130.0000 </r>
       <r>    27.6438     0.0000   130.0000 </r>
       <r>    27.6745     0.0000   130.0000 </r>
       <r>    27.7052     0.0000   130.0000 </r>
       <r>    27.7359     0.0000   130.0000 </r>
       <r>    27.7666     0.0000   130.0000 </r>
       <r>    27.7973     0.0000   130.0000 </r>
       <r>    27.8280     0.0000   130.0000 </r>
       <r>    27.8587     0.0000   130.0000 </r>
       <r>    27.8895     0.0000   130.0000 </r>
       <r>    27.9202     0.0000   130.0000 </r>
       <r>    27.9509     0.0000   130.0000 </r>
       <r>    27.9816     0.0000   130.0000 </r>
       <r>    28.0123     0.0000   130.0000 </r>
       <r>    28.0430     0.0000   130.0000 </r>
       <r>    28.0737     0.0000   130.0000 </r>
       <r>    28.1044     0.0000   130.0000 </r>
       <r>    28.1351     0.0000   130.0000 </r>
       <r>    28.1658     0.0000   130.0000 </r>
       <r>    28.1965     0.0000   130.0000 </r>
       <r>    28.2272     0.0000   130.0000 </r>
       <r>    28.2580     0.0000   130.0000 </r>
       <r>    28.2887     0.0000   130.0000 </r>
       <r>    28.3194     0.0000   130.0000 </r>
       <r>    28.3501     0.0000   130.0000 </r>
       <r>    28.3808     0.0000   130.0000 </r>
       <r>    28.4115     0.0000   130.0000 </r>
       <r>    28.4422     0.0000   130.0000 </r>
       <r>    28.4729     0.0000   130.0000 </r>
       <r>    28.5036     0.0000   130.0000 </r>
       <r>    28.5343     0.0000   130.0000 </r>
       <r>    28.5650     0.0000   130.0000 </r>
       <r>    28.5958     0.0000   130.0000 </r>
       <r>    28.6265     0.0000   130.0000 </r>
       <r>    28.6572     0.0000   130.0000 </r>
       <r>    28.6879     0.0000   130.0000 </r>
       <r>    28.7186     0.0000   130.0000 </r>
       <r>    28.7493     0.0000   130.0000 </r>
       <r>    28.7800     0.0000   130.0000 </r>
       <r>    28.8107     0.0000   130.0000 </r>
       <r>    28.8414     0.0000   130.0000 </r>
       <r>    28.8721     0.0000   130.0000 </r>
       <r>    28.9028     0.0000   130.0000 </r>
       <r>    28.9336     0.0000   130.0000 </r>
       <r>    28.9643     0.0000   130.0000 </r>
       <r>    28.9950     0.0000   130.0000 </r>
       <r>    29.0257     0.0000   130.0000 </r>
       <r>    29.0564     0.0000   130.0000 </r>
       <r>    29.0871     0.0000   130.0000 </r>
       <r>    29.1178     0.0000   130.0000 </r>
       <r>    29.1485     0.0000   130.0000 </r>
       <r>    29.1792     0.0000   130.0000 </r>
       <r>    29.2099     0.0000   130.0000 </r>
       <r>    29.2406     0.0000   130.0000 </r>
       <r>    29.2713     0.0000   130.0000 </r>
       <r>    29.3021     0.0000   130.0000 </r>
       <r>    29.3328     0.0000   130.0000 </r>
       <r>    29.3635     0.0000   130.0000 </r>
       <r>    29.3942     0.0000   130.0000 </r>
       <r>    29.4249     0.0000   130.0000 </r>
       <r>    29.4556     0.0000   130.0000 </r>
       <r>    29.4863     0.0000   130.0000 </r>
       <r>    29.5170     0.0000   130.0000 </r>
       <r>    29.5477     0.0000   130.0000 </r>
       <r>    29.5784     0.0000   130.0000 </r>
       <r>    29.6091     0.0000   130.0000 </r>
       <r>    29.6399     0.0000   130.0000 </r>
       <r>    29.6706     0.0000   130.0000 </r>
       <r>    29.7013     0.0000   130.0000 </r>
       <r>    29.7320     0.0000   130.0000 </r>
       <r>    29.7627     0.0000   130.0000 </r>
       <r>    29.7934     0.0000   130.0000 </r>
       <r>    29.8241     0.0000   130.0000 </r>
       <r>    29.8548     0.0000   130.0000 </r>
       <r>    29.8855     0.0000   130.0000 </r>
       <r>    29.9162     0.0000   130.0000 </r>
       <r>    29.9469     0.0000   130.0000 </r>
       <r>    29.9776     0.0000   130.0000 </r>
       <r>    30.0084     0.0000   130.0000 </r>
       <r>    30.0391     0.0000   130.0000 </r>
       <r>    30.0698     0.0000   130.0000 </r>
       <r>    30.1005     0.0000   130.0000 </r>
       <r>    30.1312     0.0000   130.0000 </r>
       <r>    30.1619     0.0000   130.0000 </r>
       <r>    30.1926     0.0000   130.0000 </r>
       <r>    30.2233     0.0000   130.0000 </r>
       <r>    30.2540     0.0000   130.0000 </r>
       <r>    30.2847     0.0000   130.0000 </r>
       <r>    30.3154     0.0000   130.0000 </r>
       <r>    30.3462     0.0000   130.0000 </r>
       <r>    30.3769     0.0000   130.0000 </r>
       <r>    30.4076     0.0000   130.0000 </r>
       <r>    30.4383     0.0000   130.0000 </r>
       <r>    30.4690     0.0000   130.0000 </r>
       <r>    30.4997     0.0000   130.0000 </r>
       <r>    30.5304     0.0000   130.0000 </r>
       <r>    30.5611     0.0000   130.0000 </r>
       <r>    30.5918     0.0000   130.0000 </r>
       <r>    30.6225     0.0000   130.0000 </r>
       <r>    30.6532     0.0000   130.0000 </r>
       <r>    30.6839     0.0000   130.0000 </r>
       <r>    30.7147     0.0000   130.0000 </r>
       <r>    30.7454     0.0000   130.0000 </r>
       <r>    30.7761     0.0000   130.0000 </r>
       <r>    30.8068     0.0000   130.0000 </r>
       <r>    30.8375     0.0000   130.0000 </r>
       <r>    30.8682     0.0000   130.0000 </r>
       <r>    30.8989     0.0000   130.0000 </r>
       <r>    30.9296     0.0000   130.0000 </r>
       <r>    30.9603     0.0000   130.0000 </r>
      </set>
     </set>
    </array>
   </total>
  </dos>
 </calculation>
 <structure name="finalpos" >
  <crystal>
   <varray name="basis" >
    <v>       1.59265383      -2.75855735       0.00000000 </v>
    <v>       1.59265383       2.75855735       0.00000000 </v>
    <v>       0.00000000       0.00000000      13.98103146 </v>
   </varray>
   <i name="volume">    122.84928053 </i>
   <varray name="rec_basis" >
    <v>       0.31394142      -0.18125416       0.00000000 </v>
    <v>       0.31394142       0.18125416       0.00000000 </v>
    <v>       0.00000000       0.00000000       0.07152548 </v>
   </varray>
  </crystal>
  <varray name="positions" >
   <v>       0.33333333       0.66666667       0.25000000 </v>
   <v>       0.66666667       0.33333333       0.75000000 </v>
   <v>       0.33333333       0.66666667       0.63810651 </v>
   <v>       0.66666667       0.33333333       0.36189349 </v>
   <v>       0.66666667       0.33333333       0.13810650 </v>
   <v>       0.33333333       0.66666667       0.86189353 </v>
  </varray>
 </structure>
</modeling>
