   6   6   0   0
  0.1786387E+02  0.3169000E-09  0.3169000E-09  0.1232400E-08  0.5000000E-15
  1.000000000000000E-004
  CAR 
 MoTe2                                   
     35.42671334    -58.33567511 3000      7.66385311      1.00000000
    -58.336  0.0000E+00  0.0000E+00
    -58.304  0.0000E+00  0.0000E+00
    -58.273  0.0000E+00  0.0000E+00
    -58.242  0.0000E+00  0.0000E+00
    -58.211  0.0000E+00  0.0000E+00
    -58.179  0.0000E+00  0.0000E+00
    -58.148  0.0000E+00  0.0000E+00
    -58.117  0.0000E+00  0.0000E+00
    -58.086  0.0000E+00  0.0000E+00
    -58.054  0.0000E+00  0.0000E+00
    -58.023  0.0000E+00  0.0000E+00
    -57.992  0.0000E+00  0.0000E+00
    -57.961  0.0000E+00  0.0000E+00
    -57.929  0.0000E+00  0.0000E+00
    -57.898  0.0000E+00  0.0000E+00
    -57.867  0.0000E+00  0.0000E+00
    -57.835  0.0000E+00  0.0000E+00
    -57.804  0.0000E+00  0.0000E+00
    -57.773  0.0000E+00  0.0000E+00
    -57.742  0.0000E+00  0.0000E+00
    -57.710  0.0000E+00  0.0000E+00
    -57.679  0.0000E+00  0.0000E+00
    -57.648  0.0000E+00  0.0000E+00
    -57.617  0.0000E+00  0.0000E+00
    -57.585  0.0000E+00  0.0000E+00
    -57.554  0.0000E+00  0.0000E+00
    -57.523  0.0000E+00  0.0000E+00
    -57.492  0.0000E+00  0.0000E+00
    -57.460  0.0000E+00  0.0000E+00
    -57.429  0.0000E+00  0.0000E+00
    -57.398  0.0000E+00  0.0000E+00
    -57.366  0.0000E+00  0.0000E+00
    -57.335  0.0000E+00  0.0000E+00
    -57.304  0.0000E+00  0.0000E+00
    -57.273  0.0000E+00  0.0000E+00
    -57.241  0.0000E+00  0.0000E+00
    -57.210  0.0000E+00  0.0000E+00
    -57.179  0.0000E+00  0.0000E+00
    -57.148  0.0000E+00  0.0000E+00
    -57.116  0.0000E+00  0.0000E+00
    -57.085  0.0000E+00  0.0000E+00
    -57.054  0.0000E+00  0.0000E+00
    -57.023  0.0000E+00  0.0000E+00
    -56.991  0.0000E+00  0.0000E+00
    -56.960  0.0000E+00  0.0000E+00
    -56.929  0.0000E+00  0.0000E+00
    -56.898  0.0000E+00  0.0000E+00
    -56.866  0.0000E+00  0.0000E+00
    -56.835  0.0000E+00  0.0000E+00
    -56.804  0.0000E+00  0.0000E+00
    -56.772  0.0000E+00  0.0000E+00
    -56.741  0.0000E+00  0.0000E+00
    -56.710  0.0000E+00  0.0000E+00
    -56.679  0.0000E+00  0.0000E+00
    -56.647  0.0000E+00  0.0000E+00
    -56.616  0.0000E+00  0.0000E+00
    -56.585  0.0000E+00  0.0000E+00
    -56.554  0.0000E+00  0.0000E+00
    -56.522  0.0000E+00  0.0000E+00
    -56.491  0.0000E+00  0.0000E+00
    -56.460  0.0000E+00  0.0000E+00
    -56.429  0.0000E+00  0.0000E+00
    -56.397  0.0000E+00  0.0000E+00
    -56.366  0.0000E+00  0.0000E+00
    -56.335  0.0000E+00  0.0000E+00
    -56.303  0.0000E+00  0.0000E+00
    -56.272  0.0000E+00  0.0000E+00
    -56.241  0.0000E+00  0.0000E+00
    -56.210  0.0000E+00  0.0000E+00
    -56.178  0.0000E+00  0.0000E+00
    -56.147  0.0000E+00  0.0000E+00
    -56.116  0.0000E+00  0.0000E+00
    -56.085  0.0000E+00  0.0000E+00
    -56.053  0.0000E+00  0.0000E+00
    -56.022  0.0000E+00  0.0000E+00
    -55.991  0.0000E+00  0.0000E+00
    -55.960  0.0000E+00  0.0000E+00
    -55.928  0.0000E+00  0.0000E+00
    -55.897  0.0000E+00  0.0000E+00
    -55.866  0.0000E+00  0.0000E+00
    -55.835  0.0000E+00  0.0000E+00
    -55.803  0.0000E+00  0.0000E+00
    -55.772  0.0000E+00  0.0000E+00
    -55.741  0.0000E+00  0.0000E+00
    -55.709  0.0000E+00  0.0000E+00
    -55.678  0.0000E+00  0.0000E+00
    -55.647  0.0000E+00  0.0000E+00
    -55.616  0.0000E+00  0.0000E+00
    -55.584  0.0000E+00  0.0000E+00
    -55.553  0.0000E+00  0.0000E+00
    -55.522  0.0000E+00  0.0000E+00
    -55.491  0.0000E+00  0.0000E+00
    -55.459  0.0000E+00  0.0000E+00
    -55.428  0.0000E+00  0.0000E+00
    -55.397  0.0000E+00  0.0000E+00
    -55.366  0.0000E+00  0.0000E+00
    -55.334  0.0000E+00  0.0000E+00
    -55.303  0.0000E+00  0.0000E+00
    -55.272  0.0000E+00  0.0000E+00
    -55.240  0.0000E+00  0.0000E+00
    -55.209  0.0000E+00  0.0000E+00
    -55.178  0.0000E+00  0.0000E+00
    -55.147  0.0000E+00  0.0000E+00
    -55.115  0.0000E+00  0.0000E+00
    -55.084  0.0000E+00  0.0000E+00
    -55.053  0.0000E+00  0.0000E+00
    -55.022  0.0000E+00  0.0000E+00
    -54.990  0.0000E+00  0.0000E+00
    -54.959  0.0000E+00  0.0000E+00
    -54.928  0.0000E+00  0.0000E+00
    -54.897  0.0000E+00  0.0000E+00
    -54.865  0.0000E+00  0.0000E+00
    -54.834  0.0000E+00  0.0000E+00
    -54.803  0.0000E+00  0.0000E+00
    -54.772  0.0000E+00  0.0000E+00
    -54.740  0.0000E+00  0.0000E+00
    -54.709  0.0000E+00  0.0000E+00
    -54.678  0.0000E+00  0.0000E+00
    -54.646  0.0000E+00  0.0000E+00
    -54.615  0.0000E+00  0.0000E+00
    -54.584  0.0000E+00  0.0000E+00
    -54.553  0.0000E+00  0.0000E+00
    -54.521  0.0000E+00  0.0000E+00
    -54.490  0.0000E+00  0.0000E+00
    -54.459  0.0000E+00  0.0000E+00
    -54.428  0.0000E+00  0.0000E+00
    -54.396  0.0000E+00  0.0000E+00
    -54.365  0.3699E-15  0.1156E-16
    -54.334  0.5679E-12  0.1777E-13
    -54.303  0.3326E-09  0.1042E-10
    -54.271  0.9221E-07  0.2893E-08
    -54.240  0.1224E-04  0.3857E-06
    -54.209  0.7894E-03  0.2506E-04
    -54.177  0.2517E-01  0.8119E-03
    -54.146  0.4054E+00  0.1349E-01
    -54.115  0.3373E+01  0.1189E+00
    -54.084  0.1472E+02  0.5793E+00
    -54.052  0.3389E+02  0.1639E+01
    -54.021  0.4084E+02  0.2916E+01
    -53.990  0.2536E+02  0.3709E+01
    -53.959  0.7975E+01  0.3958E+01
    -53.927  0.1247E+01  0.3997E+01
    -53.896  0.9544E-01  0.4000E+01
    -53.865  0.3530E-02  0.4000E+01
    -53.834  0.6243E-04  0.4000E+01
    -53.802  0.5233E-06  0.4000E+01
    -53.771  0.2065E-08  0.4000E+01
    -53.740  0.3819E-11  0.4000E+01
    -53.709  0.1381E-14  0.4000E+01
    -53.677  0.0000E+00  0.4000E+01
    -53.646  0.0000E+00  0.4000E+01
    -53.615  0.0000E+00  0.4000E+01
    -53.583  0.0000E+00  0.4000E+01
    -53.552  0.0000E+00  0.4000E+01
    -53.521  0.0000E+00  0.4000E+01
    -53.490  0.0000E+00  0.4000E+01
    -53.458  0.0000E+00  0.4000E+01
    -53.427  0.0000E+00  0.4000E+01
    -53.396  0.0000E+00  0.4000E+01
    -53.365  0.0000E+00  0.4000E+01
    -53.333  0.0000E+00  0.4000E+01
    -53.302  0.0000E+00  0.4000E+01
    -53.271  0.0000E+00  0.4000E+01
    -53.240  0.0000E+00  0.4000E+01
    -53.208  0.0000E+00  0.4000E+01
    -53.177  0.0000E+00  0.4000E+01
    -53.146  0.0000E+00  0.4000E+01
    -53.114  0.0000E+00  0.4000E+01
    -53.083  0.0000E+00  0.4000E+01
    -53.052  0.0000E+00  0.4000E+01
    -53.021  0.0000E+00  0.4000E+01
    -52.989  0.0000E+00  0.4000E+01
    -52.958  0.0000E+00  0.4000E+01
    -52.927  0.0000E+00  0.4000E+01
    -52.896  0.0000E+00  0.4000E+01
    -52.864  0.0000E+00  0.4000E+01
    -52.833  0.0000E+00  0.4000E+01
    -52.802  0.0000E+00  0.4000E+01
    -52.771  0.0000E+00  0.4000E+01
    -52.739  0.0000E+00  0.4000E+01
    -52.708  0.0000E+00  0.4000E+01
    -52.677  0.0000E+00  0.4000E+01
    -52.646  0.0000E+00  0.4000E+01
    -52.614  0.0000E+00  0.4000E+01
    -52.583  0.0000E+00  0.4000E+01
    -52.552  0.0000E+00  0.4000E+01
    -52.520  0.0000E+00  0.4000E+01
    -52.489  0.0000E+00  0.4000E+01
    -52.458  0.0000E+00  0.4000E+01
    -52.427  0.0000E+00  0.4000E+01
    -52.395  0.0000E+00  0.4000E+01
    -52.364  0.0000E+00  0.4000E+01
    -52.333  0.0000E+00  0.4000E+01
    -52.302  0.0000E+00  0.4000E+01
    -52.270  0.0000E+00  0.4000E+01
    -52.239  0.0000E+00  0.4000E+01
    -52.208  0.0000E+00  0.4000E+01
    -52.177  0.0000E+00  0.4000E+01
    -52.145  0.0000E+00  0.4000E+01
    -52.114  0.0000E+00  0.4000E+01
    -52.083  0.0000E+00  0.4000E+01
    -52.052  0.0000E+00  0.4000E+01
    -52.020  0.0000E+00  0.4000E+01
    -51.989  0.0000E+00  0.4000E+01
    -51.958  0.0000E+00  0.4000E+01
    -51.926  0.0000E+00  0.4000E+01
    -51.895  0.0000E+00  0.4000E+01
    -51.864  0.0000E+00  0.4000E+01
    -51.833  0.0000E+00  0.4000E+01
    -51.801  0.0000E+00  0.4000E+01
    -51.770  0.0000E+00  0.4000E+01
    -51.739  0.0000E+00  0.4000E+01
    -51.708  0.0000E+00  0.4000E+01
    -51.676  0.0000E+00  0.4000E+01
    -51.645  0.0000E+00  0.4000E+01
    -51.614  0.0000E+00  0.4000E+01
    -51.583  0.0000E+00  0.4000E+01
    -51.551  0.0000E+00  0.4000E+01
    -51.520  0.0000E+00  0.4000E+01
    -51.489  0.0000E+00  0.4000E+01
    -51.457  0.0000E+00  0.4000E+01
    -51.426  0.0000E+00  0.4000E+01
    -51.395  0.0000E+00  0.4000E+01
    -51.364  0.0000E+00  0.4000E+01
    -51.332  0.0000E+00  0.4000E+01
    -51.301  0.0000E+00  0.4000E+01
    -51.270  0.0000E+00  0.4000E+01
    -51.239  0.0000E+00  0.4000E+01
    -51.207  0.0000E+00  0.4000E+01
    -51.176  0.0000E+00  0.4000E+01
    -51.145  0.0000E+00  0.4000E+01
    -51.114  0.0000E+00  0.4000E+01
    -51.082  0.0000E+00  0.4000E+01
    -51.051  0.0000E+00  0.4000E+01
    -51.020  0.0000E+00  0.4000E+01
    -50.989  0.0000E+00  0.4000E+01
    -50.957  0.0000E+00  0.4000E+01
    -50.926  0.0000E+00  0.4000E+01
    -50.895  0.0000E+00  0.4000E+01
    -50.863  0.0000E+00  0.4000E+01
    -50.832  0.0000E+00  0.4000E+01
    -50.801  0.0000E+00  0.4000E+01
    -50.770  0.0000E+00  0.4000E+01
    -50.738  0.0000E+00  0.4000E+01
    -50.707  0.0000E+00  0.4000E+01
    -50.676  0.0000E+00  0.4000E+01
    -50.645  0.0000E+00  0.4000E+01
    -50.613  0.0000E+00  0.4000E+01
    -50.582  0.0000E+00  0.4000E+01
    -50.551  0.0000E+00  0.4000E+01
    -50.520  0.0000E+00  0.4000E+01
    -50.488  0.0000E+00  0.4000E+01
    -50.457  0.0000E+00  0.4000E+01
    -50.426  0.0000E+00  0.4000E+01
    -50.394  0.0000E+00  0.4000E+01
    -50.363  0.0000E+00  0.4000E+01
    -50.332  0.0000E+00  0.4000E+01
    -50.301  0.0000E+00  0.4000E+01
    -50.269  0.0000E+00  0.4000E+01
    -50.238  0.0000E+00  0.4000E+01
    -50.207  0.0000E+00  0.4000E+01
    -50.176  0.0000E+00  0.4000E+01
    -50.144  0.0000E+00  0.4000E+01
    -50.113  0.0000E+00  0.4000E+01
    -50.082  0.0000E+00  0.4000E+01
    -50.051  0.0000E+00  0.4000E+01
    -50.019  0.0000E+00  0.4000E+01
    -49.988  0.0000E+00  0.4000E+01
    -49.957  0.0000E+00  0.4000E+01
    -49.926  0.0000E+00  0.4000E+01
    -49.894  0.0000E+00  0.4000E+01
    -49.863  0.0000E+00  0.4000E+01
    -49.832  0.0000E+00  0.4000E+01
    -49.800  0.0000E+00  0.4000E+01
    -49.769  0.0000E+00  0.4000E+01
    -49.738  0.0000E+00  0.4000E+01
    -49.707  0.0000E+00  0.4000E+01
    -49.675  0.0000E+00  0.4000E+01
    -49.644  0.0000E+00  0.4000E+01
    -49.613  0.0000E+00  0.4000E+01
    -49.582  0.0000E+00  0.4000E+01
    -49.550  0.0000E+00  0.4000E+01
    -49.519  0.0000E+00  0.4000E+01
    -49.488  0.0000E+00  0.4000E+01
    -49.457  0.0000E+00  0.4000E+01
    -49.425  0.0000E+00  0.4000E+01
    -49.394  0.0000E+00  0.4000E+01
    -49.363  0.0000E+00  0.4000E+01
    -49.331  0.0000E+00  0.4000E+01
    -49.300  0.0000E+00  0.4000E+01
    -49.269  0.0000E+00  0.4000E+01
    -49.238  0.0000E+00  0.4000E+01
    -49.206  0.0000E+00  0.4000E+01
    -49.175  0.0000E+00  0.4000E+01
    -49.144  0.0000E+00  0.4000E+01
    -49.113  0.0000E+00  0.4000E+01
    -49.081  0.0000E+00  0.4000E+01
    -49.050  0.0000E+00  0.4000E+01
    -49.019  0.0000E+00  0.4000E+01
    -48.988  0.0000E+00  0.4000E+01
    -48.956  0.0000E+00  0.4000E+01
    -48.925  0.0000E+00  0.4000E+01
    -48.894  0.0000E+00  0.4000E+01
    -48.863  0.0000E+00  0.4000E+01
    -48.831  0.0000E+00  0.4000E+01
    -48.800  0.0000E+00  0.4000E+01
    -48.769  0.0000E+00  0.4000E+01
    -48.737  0.0000E+00  0.4000E+01
    -48.706  0.0000E+00  0.4000E+01
    -48.675  0.0000E+00  0.4000E+01
    -48.644  0.0000E+00  0.4000E+01
    -48.612  0.0000E+00  0.4000E+01
    -48.581  0.0000E+00  0.4000E+01
    -48.550  0.0000E+00  0.4000E+01
    -48.519  0.0000E+00  0.4000E+01
    -48.487  0.0000E+00  0.4000E+01
    -48.456  0.0000E+00  0.4000E+01
    -48.425  0.0000E+00  0.4000E+01
    -48.394  0.0000E+00  0.4000E+01
    -48.362  0.0000E+00  0.4000E+01
    -48.331  0.0000E+00  0.4000E+01
    -48.300  0.0000E+00  0.4000E+01
    -48.268  0.0000E+00  0.4000E+01
    -48.237  0.0000E+00  0.4000E+01
    -48.206  0.0000E+00  0.4000E+01
    -48.175  0.0000E+00  0.4000E+01
    -48.143  0.0000E+00  0.4000E+01
    -48.112  0.0000E+00  0.4000E+01
    -48.081  0.0000E+00  0.4000E+01
    -48.050  0.0000E+00  0.4000E+01
    -48.018  0.0000E+00  0.4000E+01
    -47.987  0.0000E+00  0.4000E+01
    -47.956  0.0000E+00  0.4000E+01
    -47.925  0.0000E+00  0.4000E+01
    -47.893  0.0000E+00  0.4000E+01
    -47.862  0.0000E+00  0.4000E+01
    -47.831  0.0000E+00  0.4000E+01
    -47.800  0.0000E+00  0.4000E+01
    -47.768  0.0000E+00  0.4000E+01
    -47.737  0.0000E+00  0.4000E+01
    -47.706  0.0000E+00  0.4000E+01
    -47.674  0.0000E+00  0.4000E+01
    -47.643  0.0000E+00  0.4000E+01
    -47.612  0.0000E+00  0.4000E+01
    -47.581  0.0000E+00  0.4000E+01
    -47.549  0.0000E+00  0.4000E+01
    -47.518  0.0000E+00  0.4000E+01
    -47.487  0.0000E+00  0.4000E+01
    -47.456  0.0000E+00  0.4000E+01
    -47.424  0.0000E+00  0.4000E+01
    -47.393  0.0000E+00  0.4000E+01
    -47.362  0.0000E+00  0.4000E+01
    -47.331  0.0000E+00  0.4000E+01
    -47.299  0.0000E+00  0.4000E+01
    -47.268  0.0000E+00  0.4000E+01
    -47.237  0.0000E+00  0.4000E+01
    -47.205  0.0000E+00  0.4000E+01
    -47.174  0.0000E+00  0.4000E+01
    -47.143  0.0000E+00  0.4000E+01
    -47.112  0.0000E+00  0.4000E+01
    -47.080  0.0000E+00  0.4000E+01
    -47.049  0.0000E+00  0.4000E+01
    -47.018  0.0000E+00  0.4000E+01
    -46.987  0.0000E+00  0.4000E+01
    -46.955  0.0000E+00  0.4000E+01
    -46.924  0.0000E+00  0.4000E+01
    -46.893  0.0000E+00  0.4000E+01
    -46.862  0.0000E+00  0.4000E+01
    -46.830  0.0000E+00  0.4000E+01
    -46.799  0.0000E+00  0.4000E+01
    -46.768  0.0000E+00  0.4000E+01
    -46.737  0.0000E+00  0.4000E+01
    -46.705  0.0000E+00  0.4000E+01
    -46.674  0.0000E+00  0.4000E+01
    -46.643  0.0000E+00  0.4000E+01
    -46.611  0.0000E+00  0.4000E+01
    -46.580  0.0000E+00  0.4000E+01
    -46.549  0.0000E+00  0.4000E+01
    -46.518  0.0000E+00  0.4000E+01
    -46.486  0.0000E+00  0.4000E+01
    -46.455  0.0000E+00  0.4000E+01
    -46.424  0.0000E+00  0.4000E+01
    -46.393  0.0000E+00  0.4000E+01
    -46.361  0.0000E+00  0.4000E+01
    -46.330  0.0000E+00  0.4000E+01
    -46.299  0.0000E+00  0.4000E+01
    -46.268  0.0000E+00  0.4000E+01
    -46.236  0.0000E+00  0.4000E+01
    -46.205  0.0000E+00  0.4000E+01
    -46.174  0.0000E+00  0.4000E+01
    -46.143  0.0000E+00  0.4000E+01
    -46.111  0.0000E+00  0.4000E+01
    -46.080  0.0000E+00  0.4000E+01
    -46.049  0.0000E+00  0.4000E+01
    -46.017  0.0000E+00  0.4000E+01
    -45.986  0.0000E+00  0.4000E+01
    -45.955  0.0000E+00  0.4000E+01
    -45.924  0.0000E+00  0.4000E+01
    -45.892  0.0000E+00  0.4000E+01
    -45.861  0.0000E+00  0.4000E+01
    -45.830  0.0000E+00  0.4000E+01
    -45.799  0.0000E+00  0.4000E+01
    -45.767  0.0000E+00  0.4000E+01
    -45.736  0.0000E+00  0.4000E+01
    -45.705  0.0000E+00  0.4000E+01
    -45.674  0.0000E+00  0.4000E+01
    -45.642  0.0000E+00  0.4000E+01
    -45.611  0.0000E+00  0.4000E+01
    -45.580  0.0000E+00  0.4000E+01
    -45.548  0.0000E+00  0.4000E+01
    -45.517  0.0000E+00  0.4000E+01
    -45.486  0.0000E+00  0.4000E+01
    -45.455  0.0000E+00  0.4000E+01
    -45.423  0.0000E+00  0.4000E+01
    -45.392  0.0000E+00  0.4000E+01
    -45.361  0.0000E+00  0.4000E+01
    -45.330  0.0000E+00  0.4000E+01
    -45.298  0.0000E+00  0.4000E+01
    -45.267  0.0000E+00  0.4000E+01
    -45.236  0.0000E+00  0.4000E+01
    -45.205  0.0000E+00  0.4000E+01
    -45.173  0.0000E+00  0.4000E+01
    -45.142  0.0000E+00  0.4000E+01
    -45.111  0.0000E+00  0.4000E+01
    -45.080  0.0000E+00  0.4000E+01
    -45.048  0.0000E+00  0.4000E+01
    -45.017  0.0000E+00  0.4000E+01
    -44.986  0.0000E+00  0.4000E+01
    -44.954  0.0000E+00  0.4000E+01
    -44.923  0.0000E+00  0.4000E+01
    -44.892  0.0000E+00  0.4000E+01
    -44.861  0.0000E+00  0.4000E+01
    -44.829  0.0000E+00  0.4000E+01
    -44.798  0.0000E+00  0.4000E+01
    -44.767  0.0000E+00  0.4000E+01
    -44.736  0.0000E+00  0.4000E+01
    -44.704  0.0000E+00  0.4000E+01
    -44.673  0.0000E+00  0.4000E+01
    -44.642  0.0000E+00  0.4000E+01
    -44.611  0.0000E+00  0.4000E+01
    -44.579  0.0000E+00  0.4000E+01
    -44.548  0.0000E+00  0.4000E+01
    -44.517  0.0000E+00  0.4000E+01
    -44.485  0.0000E+00  0.4000E+01
    -44.454  0.0000E+00  0.4000E+01
    -44.423  0.0000E+00  0.4000E+01
    -44.392  0.0000E+00  0.4000E+01
    -44.360  0.0000E+00  0.4000E+01
    -44.329  0.0000E+00  0.4000E+01
    -44.298  0.0000E+00  0.4000E+01
    -44.267  0.0000E+00  0.4000E+01
    -44.235  0.0000E+00  0.4000E+01
    -44.204  0.0000E+00  0.4000E+01
    -44.173  0.0000E+00  0.4000E+01
    -44.142  0.0000E+00  0.4000E+01
    -44.110  0.0000E+00  0.4000E+01
    -44.079  0.0000E+00  0.4000E+01
    -44.048  0.0000E+00  0.4000E+01
    -44.017  0.0000E+00  0.4000E+01
    -43.985  0.0000E+00  0.4000E+01
    -43.954  0.0000E+00  0.4000E+01
    -43.923  0.0000E+00  0.4000E+01
    -43.891  0.0000E+00  0.4000E+01
    -43.860  0.0000E+00  0.4000E+01
    -43.829  0.0000E+00  0.4000E+01
    -43.798  0.0000E+00  0.4000E+01
    -43.766  0.0000E+00  0.4000E+01
    -43.735  0.0000E+00  0.4000E+01
    -43.704  0.0000E+00  0.4000E+01
    -43.673  0.0000E+00  0.4000E+01
    -43.641  0.0000E+00  0.4000E+01
    -43.610  0.0000E+00  0.4000E+01
    -43.579  0.0000E+00  0.4000E+01
    -43.548  0.0000E+00  0.4000E+01
    -43.516  0.0000E+00  0.4000E+01
    -43.485  0.0000E+00  0.4000E+01
    -43.454  0.0000E+00  0.4000E+01
    -43.422  0.0000E+00  0.4000E+01
    -43.391  0.0000E+00  0.4000E+01
    -43.360  0.0000E+00  0.4000E+01
    -43.329  0.0000E+00  0.4000E+01
    -43.297  0.0000E+00  0.4000E+01
    -43.266  0.0000E+00  0.4000E+01
    -43.235  0.0000E+00  0.4000E+01
    -43.204  0.0000E+00  0.4000E+01
    -43.172  0.0000E+00  0.4000E+01
    -43.141  0.0000E+00  0.4000E+01
    -43.110  0.0000E+00  0.4000E+01
    -43.079  0.0000E+00  0.4000E+01
    -43.047  0.0000E+00  0.4000E+01
    -43.016  0.0000E+00  0.4000E+01
    -42.985  0.0000E+00  0.4000E+01
    -42.954  0.0000E+00  0.4000E+01
    -42.922  0.0000E+00  0.4000E+01
    -42.891  0.0000E+00  0.4000E+01
    -42.860  0.0000E+00  0.4000E+01
    -42.828  0.0000E+00  0.4000E+01
    -42.797  0.0000E+00  0.4000E+01
    -42.766  0.0000E+00  0.4000E+01
    -42.735  0.0000E+00  0.4000E+01
    -42.703  0.0000E+00  0.4000E+01
    -42.672  0.0000E+00  0.4000E+01
    -42.641  0.0000E+00  0.4000E+01
    -42.610  0.0000E+00  0.4000E+01
    -42.578  0.0000E+00  0.4000E+01
    -42.547  0.0000E+00  0.4000E+01
    -42.516  0.0000E+00  0.4000E+01
    -42.485  0.0000E+00  0.4000E+01
    -42.453  0.0000E+00  0.4000E+01
    -42.422  0.0000E+00  0.4000E+01
    -42.391  0.0000E+00  0.4000E+01
    -42.359  0.0000E+00  0.4000E+01
    -42.328  0.0000E+00  0.4000E+01
    -42.297  0.0000E+00  0.4000E+01
    -42.266  0.0000E+00  0.4000E+01
    -42.234  0.0000E+00  0.4000E+01
    -42.203  0.0000E+00  0.4000E+01
    -42.172  0.0000E+00  0.4000E+01
    -42.141  0.0000E+00  0.4000E+01
    -42.109  0.0000E+00  0.4000E+01
    -42.078  0.0000E+00  0.4000E+01
    -42.047  0.0000E+00  0.4000E+01
    -42.016  0.0000E+00  0.4000E+01
    -41.984  0.0000E+00  0.4000E+01
    -41.953  0.0000E+00  0.4000E+01
    -41.922  0.0000E+00  0.4000E+01
    -41.891  0.0000E+00  0.4000E+01
    -41.859  0.0000E+00  0.4000E+01
    -41.828  0.0000E+00  0.4000E+01
    -41.797  0.0000E+00  0.4000E+01
    -41.765  0.0000E+00  0.4000E+01
    -41.734  0.0000E+00  0.4000E+01
    -41.703  0.0000E+00  0.4000E+01
    -41.672  0.0000E+00  0.4000E+01
    -41.640  0.0000E+00  0.4000E+01
    -41.609  0.0000E+00  0.4000E+01
    -41.578  0.0000E+00  0.4000E+01
    -41.547  0.0000E+00  0.4000E+01
    -41.515  0.0000E+00  0.4000E+01
    -41.484  0.0000E+00  0.4000E+01
    -41.453  0.0000E+00  0.4000E+01
    -41.422  0.0000E+00  0.4000E+01
    -41.390  0.0000E+00  0.4000E+01
    -41.359  0.0000E+00  0.4000E+01
    -41.328  0.0000E+00  0.4000E+01
    -41.296  0.0000E+00  0.4000E+01
    -41.265  0.0000E+00  0.4000E+01
    -41.234  0.0000E+00  0.4000E+01
    -41.203  0.0000E+00  0.4000E+01
    -41.171  0.0000E+00  0.4000E+01
    -41.140  0.0000E+00  0.4000E+01
    -41.109  0.0000E+00  0.4000E+01
    -41.078  0.0000E+00  0.4000E+01
    -41.046  0.0000E+00  0.4000E+01
    -41.015  0.0000E+00  0.4000E+01
    -40.984  0.0000E+00  0.4000E+01
    -40.953  0.0000E+00  0.4000E+01
    -40.921  0.0000E+00  0.4000E+01
    -40.890  0.0000E+00  0.4000E+01
    -40.859  0.0000E+00  0.4000E+01
    -40.828  0.0000E+00  0.4000E+01
    -40.796  0.0000E+00  0.4000E+01
    -40.765  0.0000E+00  0.4000E+01
    -40.734  0.0000E+00  0.4000E+01
    -40.702  0.0000E+00  0.4000E+01
    -40.671  0.0000E+00  0.4000E+01
    -40.640  0.0000E+00  0.4000E+01
    -40.609  0.0000E+00  0.4000E+01
    -40.577  0.0000E+00  0.4000E+01
    -40.546  0.0000E+00  0.4000E+01
    -40.515  0.0000E+00  0.4000E+01
    -40.484  0.0000E+00  0.4000E+01
    -40.452  0.0000E+00  0.4000E+01
    -40.421  0.0000E+00  0.4000E+01
    -40.390  0.0000E+00  0.4000E+01
    -40.359  0.0000E+00  0.4000E+01
    -40.327  0.0000E+00  0.4000E+01
    -40.296  0.0000E+00  0.4000E+01
    -40.265  0.0000E+00  0.4000E+01
    -40.234  0.0000E+00  0.4000E+01
    -40.202  0.0000E+00  0.4000E+01
    -40.171  0.0000E+00  0.4000E+01
    -40.140  0.0000E+00  0.4000E+01
    -40.108  0.0000E+00  0.4000E+01
    -40.077  0.0000E+00  0.4000E+01
    -40.046  0.0000E+00  0.4000E+01
    -40.015  0.0000E+00  0.4000E+01
    -39.983  0.0000E+00  0.4000E+01
    -39.952  0.0000E+00  0.4000E+01
    -39.921  0.0000E+00  0.4000E+01
    -39.890  0.0000E+00  0.4000E+01
    -39.858  0.0000E+00  0.4000E+01
    -39.827  0.0000E+00  0.4000E+01
    -39.796  0.0000E+00  0.4000E+01
    -39.765  0.0000E+00  0.4000E+01
    -39.733  0.0000E+00  0.4000E+01
    -39.702  0.0000E+00  0.4000E+01
    -39.671  0.0000E+00  0.4000E+01
    -39.639  0.0000E+00  0.4000E+01
    -39.608  0.0000E+00  0.4000E+01
    -39.577  0.0000E+00  0.4000E+01
    -39.546  0.0000E+00  0.4000E+01
    -39.514  0.0000E+00  0.4000E+01
    -39.483  0.0000E+00  0.4000E+01
    -39.452  0.0000E+00  0.4000E+01
    -39.421  0.0000E+00  0.4000E+01
    -39.389  0.0000E+00  0.4000E+01
    -39.358  0.0000E+00  0.4000E+01
    -39.327  0.0000E+00  0.4000E+01
    -39.296  0.0000E+00  0.4000E+01
    -39.264  0.0000E+00  0.4000E+01
    -39.233  0.0000E+00  0.4000E+01
    -39.202  0.0000E+00  0.4000E+01
    -39.171  0.0000E+00  0.4000E+01
    -39.139  0.0000E+00  0.4000E+01
    -39.108  0.0000E+00  0.4000E+01
    -39.077  0.0000E+00  0.4000E+01
    -39.045  0.0000E+00  0.4000E+01
    -39.014  0.0000E+00  0.4000E+01
    -38.983  0.0000E+00  0.4000E+01
    -38.952  0.0000E+00  0.4000E+01
    -38.920  0.0000E+00  0.4000E+01
    -38.889  0.0000E+00  0.4000E+01
    -38.858  0.0000E+00  0.4000E+01
    -38.827  0.0000E+00  0.4000E+01
    -38.795  0.0000E+00  0.4000E+01
    -38.764  0.0000E+00  0.4000E+01
    -38.733  0.0000E+00  0.4000E+01
    -38.702  0.0000E+00  0.4000E+01
    -38.670  0.0000E+00  0.4000E+01
    -38.639  0.0000E+00  0.4000E+01
    -38.608  0.0000E+00  0.4000E+01
    -38.576  0.0000E+00  0.4000E+01
    -38.545  0.0000E+00  0.4000E+01
    -38.514  0.0000E+00  0.4000E+01
    -38.483  0.0000E+00  0.4000E+01
    -38.451  0.0000E+00  0.4000E+01
    -38.420  0.0000E+00  0.4000E+01
    -38.389  0.0000E+00  0.4000E+01
    -38.358  0.0000E+00  0.4000E+01
    -38.326  0.0000E+00  0.4000E+01
    -38.295  0.0000E+00  0.4000E+01
    -38.264  0.0000E+00  0.4000E+01
    -38.233  0.0000E+00  0.4000E+01
    -38.201  0.0000E+00  0.4000E+01
    -38.170  0.0000E+00  0.4000E+01
    -38.139  0.0000E+00  0.4000E+01
    -38.108  0.0000E+00  0.4000E+01
    -38.076  0.0000E+00  0.4000E+01
    -38.045  0.0000E+00  0.4000E+01
    -38.014  0.0000E+00  0.4000E+01
    -37.982  0.0000E+00  0.4000E+01
    -37.951  0.0000E+00  0.4000E+01
    -37.920  0.0000E+00  0.4000E+01
    -37.889  0.0000E+00  0.4000E+01
    -37.857  0.0000E+00  0.4000E+01
    -37.826  0.0000E+00  0.4000E+01
    -37.795  0.0000E+00  0.4000E+01
    -37.764  0.0000E+00  0.4000E+01
    -37.732  0.0000E+00  0.4000E+01
    -37.701  0.0000E+00  0.4000E+01
    -37.670  0.0000E+00  0.4000E+01
    -37.639  0.0000E+00  0.4000E+01
    -37.607  0.0000E+00  0.4000E+01
    -37.576  0.0000E+00  0.4000E+01
    -37.545  0.0000E+00  0.4000E+01
    -37.513  0.0000E+00  0.4000E+01
    -37.482  0.0000E+00  0.4000E+01
    -37.451  0.0000E+00  0.4000E+01
    -37.420  0.0000E+00  0.4000E+01
    -37.388  0.0000E+00  0.4000E+01
    -37.357  0.0000E+00  0.4000E+01
    -37.326  0.0000E+00  0.4000E+01
    -37.295  0.0000E+00  0.4000E+01
    -37.263  0.0000E+00  0.4000E+01
    -37.232  0.0000E+00  0.4000E+01
    -37.201  0.0000E+00  0.4000E+01
    -37.170  0.0000E+00  0.4000E+01
    -37.138  0.0000E+00  0.4000E+01
    -37.107  0.0000E+00  0.4000E+01
    -37.076  0.0000E+00  0.4000E+01
    -37.045  0.0000E+00  0.4000E+01
    -37.013  0.0000E+00  0.4000E+01
    -36.982  0.0000E+00  0.4000E+01
    -36.951  0.0000E+00  0.4000E+01
    -36.919  0.0000E+00  0.4000E+01
    -36.888  0.0000E+00  0.4000E+01
    -36.857  0.0000E+00  0.4000E+01
    -36.826  0.0000E+00  0.4000E+01
    -36.794  0.0000E+00  0.4000E+01
    -36.763  0.0000E+00  0.4000E+01
    -36.732  0.0000E+00  0.4000E+01
    -36.701  0.0000E+00  0.4000E+01
    -36.669  0.0000E+00  0.4000E+01
    -36.638  0.0000E+00  0.4000E+01
    -36.607  0.0000E+00  0.4000E+01
    -36.576  0.0000E+00  0.4000E+01
    -36.544  0.0000E+00  0.4000E+01
    -36.513  0.0000E+00  0.4000E+01
    -36.482  0.0000E+00  0.4000E+01
    -36.450  0.0000E+00  0.4000E+01
    -36.419  0.0000E+00  0.4000E+01
    -36.388  0.0000E+00  0.4000E+01
    -36.357  0.0000E+00  0.4000E+01
    -36.325  0.0000E+00  0.4000E+01
    -36.294  0.0000E+00  0.4000E+01
    -36.263  0.0000E+00  0.4000E+01
    -36.232  0.0000E+00  0.4000E+01
    -36.200  0.0000E+00  0.4000E+01
    -36.169  0.0000E+00  0.4000E+01
    -36.138  0.0000E+00  0.4000E+01
    -36.107  0.0000E+00  0.4000E+01
    -36.075  0.0000E+00  0.4000E+01
    -36.044  0.0000E+00  0.4000E+01
    -36.013  0.0000E+00  0.4000E+01
    -35.982  0.0000E+00  0.4000E+01
    -35.950  0.0000E+00  0.4000E+01
    -35.919  0.0000E+00  0.4000E+01
    -35.888  0.0000E+00  0.4000E+01
    -35.856  0.0000E+00  0.4000E+01
    -35.825  0.0000E+00  0.4000E+01
    -35.794  0.0000E+00  0.4000E+01
    -35.763  0.0000E+00  0.4000E+01
    -35.731  0.0000E+00  0.4000E+01
    -35.700  0.0000E+00  0.4000E+01
    -35.669  0.0000E+00  0.4000E+01
    -35.638  0.0000E+00  0.4000E+01
    -35.606  0.0000E+00  0.4000E+01
    -35.575  0.0000E+00  0.4000E+01
    -35.544  0.0000E+00  0.4000E+01
    -35.513  0.0000E+00  0.4000E+01
    -35.481  0.0000E+00  0.4000E+01
    -35.450  0.0000E+00  0.4000E+01
    -35.419  0.0000E+00  0.4000E+01
    -35.387  0.0000E+00  0.4000E+01
    -35.356  0.0000E+00  0.4000E+01
    -35.325  0.0000E+00  0.4000E+01
    -35.294  0.0000E+00  0.4000E+01
    -35.262  0.0000E+00  0.4000E+01
    -35.231  0.0000E+00  0.4000E+01
    -35.200  0.0000E+00  0.4000E+01
    -35.169  0.0000E+00  0.4000E+01
    -35.137  0.0000E+00  0.4000E+01
    -35.106  0.0000E+00  0.4000E+01
    -35.075  0.0000E+00  0.4000E+01
    -35.044  0.0000E+00  0.4000E+01
    -35.012  0.0000E+00  0.4000E+01
    -34.981  0.0000E+00  0.4000E+01
    -34.950  0.0000E+00  0.4000E+01
    -34.919  0.0000E+00  0.4000E+01
    -34.887  0.0000E+00  0.4000E+01
    -34.856  0.0000E+00  0.4000E+01
    -34.825  0.0000E+00  0.4000E+01
    -34.793  0.0000E+00  0.4000E+01
    -34.762  0.0000E+00  0.4000E+01
    -34.731  0.0000E+00  0.4000E+01
    -34.700  0.0000E+00  0.4000E+01
    -34.668  0.0000E+00  0.4000E+01
    -34.637  0.0000E+00  0.4000E+01
    -34.606  0.0000E+00  0.4000E+01
    -34.575  0.0000E+00  0.4000E+01
    -34.543  0.0000E+00  0.4000E+01
    -34.512  0.0000E+00  0.4000E+01
    -34.481  0.0000E+00  0.4000E+01
    -34.450  0.0000E+00  0.4000E+01
    -34.418  0.0000E+00  0.4000E+01
    -34.387  0.0000E+00  0.4000E+01
    -34.356  0.0000E+00  0.4000E+01
    -34.324  0.0000E+00  0.4000E+01
    -34.293  0.0000E+00  0.4000E+01
    -34.262  0.0000E+00  0.4000E+01
    -34.231  0.0000E+00  0.4000E+01
    -34.199  0.0000E+00  0.4000E+01
    -34.168  0.0000E+00  0.4000E+01
    -34.137  0.0000E+00  0.4000E+01
    -34.106  0.0000E+00  0.4000E+01
    -34.074  0.0000E+00  0.4000E+01
    -34.043  0.0000E+00  0.4000E+01
    -34.012  0.0000E+00  0.4000E+01
    -33.981  0.0000E+00  0.4000E+01
    -33.949  0.0000E+00  0.4000E+01
    -33.918  0.0000E+00  0.4000E+01
    -33.887  0.0000E+00  0.4000E+01
    -33.856  0.0000E+00  0.4000E+01
    -33.824  0.0000E+00  0.4000E+01
    -33.793  0.0000E+00  0.4000E+01
    -33.762  0.0000E+00  0.4000E+01
    -33.730  0.0000E+00  0.4000E+01
    -33.699  0.0000E+00  0.4000E+01
    -33.668  0.0000E+00  0.4000E+01
    -33.637  0.0000E+00  0.4000E+01
    -33.605  0.0000E+00  0.4000E+01
    -33.574  0.0000E+00  0.4000E+01
    -33.543  0.0000E+00  0.4000E+01
    -33.512  0.0000E+00  0.4000E+01
    -33.480  0.0000E+00  0.4000E+01
    -33.449  0.0000E+00  0.4000E+01
    -33.418  0.0000E+00  0.4000E+01
    -33.387  0.0000E+00  0.4000E+01
    -33.355  0.0000E+00  0.4000E+01
    -33.324  0.0000E+00  0.4000E+01
    -33.293  0.0000E+00  0.4000E+01
    -33.262  0.0000E+00  0.4000E+01
    -33.230  0.0000E+00  0.4000E+01
    -33.199  0.0000E+00  0.4000E+01
    -33.168  0.0000E+00  0.4000E+01
    -33.136  0.0000E+00  0.4000E+01
    -33.105  0.0000E+00  0.4000E+01
    -33.074  0.0000E+00  0.4000E+01
    -33.043  0.0000E+00  0.4000E+01
    -33.011  0.0000E+00  0.4000E+01
    -32.980  0.0000E+00  0.4000E+01
    -32.949  0.0000E+00  0.4000E+01
    -32.918  0.0000E+00  0.4000E+01
    -32.886  0.0000E+00  0.4000E+01
    -32.855  0.0000E+00  0.4000E+01
    -32.824  0.0000E+00  0.4000E+01
    -32.793  0.0000E+00  0.4000E+01
    -32.761  0.0000E+00  0.4000E+01
    -32.730  0.0000E+00  0.4000E+01
    -32.699  0.0000E+00  0.4000E+01
    -32.667  0.0000E+00  0.4000E+01
    -32.636  0.0000E+00  0.4000E+01
    -32.605  0.0000E+00  0.4000E+01
    -32.574  0.0000E+00  0.4000E+01
    -32.542  0.0000E+00  0.4000E+01