   6   6   0   0
  0.2057358E+02  0.3193000E-09  0.3193000E-09  0.1398082E-08  0.5000000E-15
  1.000000000000000E-004
  CAR 
 MoTe2                                   
     12.07625674    -58.94037967  301      5.74393999      1.00000000
    -58.940  0.0000E+00  0.0000E+00
    -58.704  0.0000E+00  0.0000E+00
    -58.467  0.0000E+00  0.0000E+00
    -58.230  0.0000E+00  0.0000E+00
    -57.993  0.0000E+00  0.0000E+00
    -57.757  0.0000E+00  0.0000E+00
    -57.520  0.0000E+00  0.0000E+00
    -57.283  0.0000E+00  0.0000E+00
    -57.047  0.0000E+00  0.0000E+00
    -56.810  0.0000E+00  0.0000E+00
    -56.573  0.0000E+00  0.0000E+00
    -56.336  0.0000E+00  0.0000E+00
    -56.100  0.0000E+00  0.0000E+00
    -55.863  0.3141E-06  0.7436E-07
    -55.626  0.3186E+00  0.7541E-01
    -55.390  0.1939E-01  0.8000E-01
    -55.153  0.0000E+00  0.8000E-01
    -54.916  0.0000E+00  0.8000E-01
    -54.679  0.0000E+00  0.8000E-01
    -54.443  0.0000E+00  0.8000E-01
    -54.206  0.0000E+00  0.8000E-01
    -53.969  0.0000E+00  0.8000E-01
    -53.732  0.0000E+00  0.8000E-01
    -53.496  0.0000E+00  0.8000E-01
    -53.259  0.0000E+00  0.8000E-01
    -53.022  0.0000E+00  0.8000E-01
    -52.786  0.0000E+00  0.8000E-01
    -52.549  0.0000E+00  0.8000E-01
    -52.312  0.0000E+00  0.8000E-01
    -52.075  0.0000E+00  0.8000E-01
    -51.839  0.0000E+00  0.8000E-01
    -51.602  0.0000E+00  0.8000E-01
    -51.365  0.0000E+00  0.8000E-01
    -51.129  0.0000E+00  0.8000E-01
    -50.892  0.0000E+00  0.8000E-01
    -50.655  0.0000E+00  0.8000E-01
    -50.418  0.0000E+00  0.8000E-01
    -50.182  0.0000E+00  0.8000E-01
    -49.945  0.0000E+00  0.8000E-01
    -49.708  0.0000E+00  0.8000E-01
    -49.471  0.0000E+00  0.8000E-01
    -49.235  0.0000E+00  0.8000E-01
    -48.998  0.0000E+00  0.8000E-01
    -48.761  0.0000E+00  0.8000E-01
    -48.525  0.0000E+00  0.8000E-01
    -48.288  0.0000E+00  0.8000E-01
    -48.051  0.0000E+00  0.8000E-01
    -47.814  0.0000E+00  0.8000E-01
    -47.578  0.0000E+00  0.8000E-01
    -47.341  0.0000E+00  0.8000E-01
    -47.104  0.0000E+00  0.8000E-01
    -46.868  0.0000E+00  0.8000E-01
    -46.631  0.0000E+00  0.8000E-01
    -46.394  0.0000E+00  0.8000E-01
    -46.157  0.0000E+00  0.8000E-01
    -45.921  0.0000E+00  0.8000E-01
    -45.684  0.0000E+00  0.8000E-01
    -45.447  0.0000E+00  0.8000E-01
    -45.210  0.0000E+00  0.8000E-01
    -44.974  0.0000E+00  0.8000E-01
    -44.737  0.0000E+00  0.8000E-01
    -44.500  0.0000E+00  0.8000E-01
    -44.264  0.0000E+00  0.8000E-01
    -44.027  0.0000E+00  0.8000E-01
    -43.790  0.0000E+00  0.8000E-01
    -43.553  0.0000E+00  0.8000E-01
    -43.317  0.0000E+00  0.8000E-01
    -43.080  0.0000E+00  0.8000E-01
    -42.843  0.0000E+00  0.8000E-01
    -42.607  0.0000E+00  0.8000E-01
    -42.370  0.0000E+00  0.8000E-01
    -42.133  0.0000E+00  0.8000E-01
    -41.896  0.0000E+00  0.8000E-01
    -41.660  0.0000E+00  0.8000E-01
    -41.423  0.0000E+00  0.8000E-01
    -41.186  0.0000E+00  0.8000E-01
    -40.949  0.0000E+00  0.8000E-01
    -40.713  0.0000E+00  0.8000E-01
    -40.476  0.0000E+00  0.8000E-01
    -40.239  0.0000E+00  0.8000E-01
    -40.003  0.0000E+00  0.8000E-01
    -39.766  0.0000E+00  0.8000E-01
    -39.529  0.0000E+00  0.8000E-01
    -39.292  0.0000E+00  0.8000E-01
    -39.056  0.0000E+00  0.8000E-01
    -38.819  0.0000E+00  0.8000E-01
    -38.582  0.0000E+00  0.8000E-01
    -38.346  0.0000E+00  0.8000E-01
    -38.109  0.0000E+00  0.8000E-01
    -37.872  0.0000E+00  0.8000E-01
    -37.635  0.0000E+00  0.8000E-01
    -37.399  0.0000E+00  0.8000E-01
    -37.162  0.0000E+00  0.8000E-01
    -36.925  0.0000E+00  0.8000E-01
    -36.689  0.0000E+00  0.8000E-01
    -36.452  0.0000E+00  0.8000E-01
    -36.215  0.0000E+00  0.8000E-01
    -35.978  0.0000E+00  0.8000E-01
    -35.742  0.0000E+00  0.8000E-01
    -35.505  0.0000E+00  0.8000E-01
    -35.268  0.0000E+00  0.8000E-01
    -35.031  0.0000E+00  0.8000E-01
    -34.795  0.0000E+00  0.8000E-01
    -34.558  0.0000E+00  0.8000E-01
    -34.321  0.0000E+00  0.8000E-01
    -34.085  0.0000E+00  0.8000E-01
    -33.848  0.0000E+00  0.8000E-01
    -33.611  0.0000E+00  0.8000E-01
    -33.374  0.0000E+00  0.8000E-01
    -33.138  0.0000E+00  0.8000E-01
    -32.901  0.0000E+00  0.8000E-01
    -32.664  0.0000E+00  0.8000E-01
    -32.428  0.0000E+00  0.8000E-01
    -32.191  0.0000E+00  0.8000E-01
    -31.954  0.0000E+00  0.8000E-01
    -31.717  0.0000E+00  0.8000E-01
    -31.481  0.0000E+00  0.8000E-01
    -31.244  0.0000E+00  0.8000E-01
    -31.007  0.0000E+00  0.8000E-01
    -30.770  0.0000E+00  0.8000E-01
    -30.534  0.0000E+00  0.8000E-01
    -30.297  0.7817E-18  0.8000E-01
    -30.060  0.1825E-02  0.8043E-01
    -29.824  0.3566E+00  0.1648E+00
    -29.587  0.6536E+00  0.3196E+00
    -29.350  0.1890E-02  0.3200E+00
    -29.113  0.0000E+00  0.3200E+00
    -28.877  0.0000E+00  0.3200E+00
    -28.640  0.0000E+00  0.3200E+00
    -28.403  0.0000E+00  0.3200E+00
    -28.167  0.0000E+00  0.3200E+00
    -27.930  0.0000E+00  0.3200E+00
    -27.693  0.0000E+00  0.3200E+00
    -27.456  0.0000E+00  0.3200E+00
    -27.220  0.0000E+00  0.3200E+00
    -26.983  0.0000E+00  0.3200E+00
    -26.746  0.0000E+00  0.3200E+00
    -26.509  0.0000E+00  0.3200E+00
    -26.273  0.0000E+00  0.3200E+00
    -26.036  0.0000E+00  0.3200E+00
    -25.799  0.0000E+00  0.3200E+00
    -25.563  0.0000E+00  0.3200E+00
    -25.326  0.0000E+00  0.3200E+00
    -25.089  0.0000E+00  0.3200E+00
    -24.852  0.0000E+00  0.3200E+00
    -24.616  0.0000E+00  0.3200E+00
    -24.379  0.0000E+00  0.3200E+00
    -24.142  0.0000E+00  0.3200E+00
    -23.906  0.0000E+00  0.3200E+00
    -23.669  0.0000E+00  0.3200E+00
    -23.432  0.0000E+00  0.3200E+00
    -23.195  0.0000E+00  0.3200E+00
    -22.959  0.0000E+00  0.3200E+00
    -22.722  0.0000E+00  0.3200E+00
    -22.485  0.0000E+00  0.3200E+00
    -22.248  0.0000E+00  0.3200E+00
    -22.012  0.0000E+00  0.3200E+00
    -21.775  0.0000E+00  0.3200E+00
    -21.538  0.0000E+00  0.3200E+00
    -21.302  0.0000E+00  0.3200E+00
    -21.065  0.0000E+00  0.3200E+00
    -20.828  0.0000E+00  0.3200E+00
    -20.591  0.0000E+00  0.3200E+00
    -20.355  0.0000E+00  0.3200E+00
    -20.118  0.0000E+00  0.3200E+00
    -19.881  0.0000E+00  0.3200E+00
    -19.645  0.0000E+00  0.3200E+00
    -19.408  0.0000E+00  0.3200E+00
    -19.171  0.0000E+00  0.3200E+00
    -18.934  0.0000E+00  0.3200E+00
    -18.698  0.0000E+00  0.3200E+00
    -18.461  0.0000E+00  0.3200E+00
    -18.224  0.0000E+00  0.3200E+00
    -17.987  0.0000E+00  0.3200E+00
    -17.751  0.0000E+00  0.3200E+00
    -17.514  0.0000E+00  0.3200E+00
    -17.277  0.0000E+00  0.3200E+00
    -17.041  0.0000E+00  0.3200E+00
    -16.804  0.0000E+00  0.3200E+00
    -16.567  0.0000E+00  0.3200E+00
    -16.330  0.0000E+00  0.3200E+00
    -16.094  0.0000E+00  0.3200E+00
    -15.857  0.0000E+00  0.3200E+00
    -15.620  0.0000E+00  0.3200E+00
    -15.384  0.0000E+00  0.3200E+00
    -15.147  0.0000E+00  0.3200E+00
    -14.910  0.0000E+00  0.3200E+00
    -14.673  0.0000E+00  0.3200E+00
    -14.437  0.0000E+00  0.3200E+00
    -14.200  0.0000E+00  0.3200E+00
    -13.963  0.0000E+00  0.3200E+00
    -13.726  0.0000E+00  0.3200E+00
    -13.490  0.0000E+00  0.3200E+00
    -13.253  0.0000E+00  0.3200E+00
    -13.016  0.0000E+00  0.3200E+00
    -12.780  0.0000E+00  0.3200E+00
    -12.543  0.0000E+00  0.3200E+00
    -12.306  0.0000E+00  0.3200E+00
    -12.069  0.0000E+00  0.3200E+00
    -11.833  0.0000E+00  0.3200E+00
    -11.596  0.0000E+00  0.3200E+00
    -11.359  0.0000E+00  0.3200E+00
    -11.123  0.0000E+00  0.3200E+00
    -10.886  0.0000E+00  0.3200E+00
    -10.649  0.0000E+00  0.3200E+00
    -10.412  0.0000E+00  0.3200E+00
    -10.176  0.0000E+00  0.3200E+00
     -9.939  0.0000E+00  0.3200E+00
     -9.702  0.0000E+00  0.3200E+00
     -9.465  0.0000E+00  0.3200E+00
     -9.229  0.0000E+00  0.3200E+00
     -8.992  0.3703E-04  0.3200E+00
     -8.755  0.1429E-01  0.3234E+00
     -8.519  0.2200E-01  0.3286E+00
     -8.282  0.1375E-01  0.3319E+00
     -8.045  0.3420E-01  0.3399E+00
     -7.808  0.2351E-01  0.3455E+00
     -7.572  0.4137E-01  0.3553E+00
     -7.335  0.9798E-01  0.3785E+00
     -7.098  0.1090E+00  0.4043E+00
     -6.862  0.2063E+00  0.4531E+00
     -6.625  0.1134E+00  0.4800E+00
     -6.388  0.6235E-04  0.4800E+00
     -6.151  0.0000E+00  0.4800E+00
     -5.915  0.0000E+00  0.4800E+00
     -5.678  0.0000E+00  0.4800E+00
     -5.441  0.0000E+00  0.4800E+00
     -5.204  0.0000E+00  0.4800E+00
     -4.968  0.0000E+00  0.4800E+00
     -4.731  0.0000E+00  0.4800E+00
     -4.494  0.0000E+00  0.4800E+00
     -4.258  0.0000E+00  0.4800E+00
     -4.021  0.0000E+00  0.4800E+00
     -3.784  0.0000E+00  0.4800E+00
     -3.547  0.0000E+00  0.4800E+00
     -3.311  0.0000E+00  0.4800E+00
     -3.074  0.0000E+00  0.4800E+00
     -2.837  0.0000E+00  0.4800E+00
     -2.601  0.0000E+00  0.4800E+00
     -2.364  0.0000E+00  0.4800E+00
     -2.127  0.0000E+00  0.4800E+00
     -1.890  0.0000E+00  0.4800E+00
     -1.654  0.0000E+00  0.4800E+00
     -1.417  0.0000E+00  0.4800E+00
     -1.180  0.0000E+00  0.4800E+00
     -0.943  0.0000E+00  0.4800E+00
     -0.707  0.9097E-05  0.4800E+00
     -0.470  0.2068E-01  0.4849E+00
     -0.233  0.5105E-01  0.4970E+00
      0.003  0.1263E+00  0.5269E+00
      0.240  0.1461E+00  0.5615E+00
      0.477  0.1136E+00  0.5884E+00
      0.714  0.3426E-01  0.5965E+00
      0.950  0.4455E-01  0.6070E+00
      1.187  0.5350E-01  0.6197E+00
      1.424  0.1970E+00  0.6663E+00
      1.660  0.1068E+00  0.6916E+00
      1.897  0.6546E-01  0.7071E+00
      2.134  0.2150E+00  0.7580E+00
      2.371  0.9960E-01  0.7816E+00
      2.607  0.3523E-01  0.7899E+00
      2.844  0.8413E-01  0.8098E+00
      3.081  0.7577E-01  0.8277E+00
      3.318  0.1306E+00  0.8587E+00
      3.554  0.1632E+00  0.8973E+00
      3.791  0.1014E+00  0.9213E+00
      4.028  0.8342E-01  0.9411E+00
      4.264  0.6144E-01  0.9556E+00
      4.501  0.1568E+00  0.9927E+00
      4.738  0.1072E+00  0.1018E+01
      4.975  0.5638E-01  0.1031E+01
      5.211  0.2757E-01  0.1038E+01
      5.448  0.7636E-02  0.1040E+01
      5.685  0.1013E-02  0.1040E+01
      5.921  0.0000E+00  0.1040E+01
      6.158  0.0000E+00  0.1040E+01
      6.395  0.0000E+00  0.1040E+01
      6.632  0.2556E-10  0.1040E+01
      6.868  0.4881E-02  0.1041E+01
      7.105  0.6826E-01  0.1057E+01
      7.342  0.9428E-01  0.1080E+01
      7.579  0.1786E+00  0.1122E+01
      7.815  0.2006E+00  0.1169E+01
      8.052  0.1508E+00  0.1205E+01
      8.289  0.4801E-01  0.1216E+01
      8.525  0.6741E-01  0.1232E+01
      8.762  0.1399E-01  0.1236E+01
      8.999  0.1812E-01  0.1240E+01
      9.236  0.1434E-06  0.1240E+01
      9.472  0.0000E+00  0.1240E+01
      9.709  0.0000E+00  0.1240E+01
      9.946  0.0000E+00  0.1240E+01
     10.182  0.0000E+00  0.1240E+01
     10.419  0.0000E+00  0.1240E+01
     10.656  0.0000E+00  0.1240E+01
     10.893  0.0000E+00  0.1240E+01
     11.129  0.0000E+00  0.1240E+01
     11.366  0.0000E+00  0.1240E+01
     11.603  0.0000E+00  0.1240E+01
     11.840  0.0000E+00  0.1240E+01
     12.076  0.0000E+00  0.1240E+01
