[Molden Format]
[FREQ]
    0.00
    0.00
    0.00
    0.00
    0.00
    0.00
    0.00
  254.19
  271.58
  274.99
  294.28
  343.57
  369.34
  371.60
  374.79
  413.29
  445.68
  461.74
[FR-COORD]
   Mo          3.00769        1.73647        6.48146
   Mo         -0.00000        3.47294       19.44437
   S          -0.00000        3.47294        3.50427
   S           3.00769        1.73647       16.46718
   S          -0.00000        3.47294        9.45865
   S           3.00769        1.73647       22.42156
[FR-NORM-COORD]
 vibration     1
   0.01374  -0.01441  -0.39193
  -0.01374   0.01441   0.39193
   0.02804   0.01638  -0.41980
   0.00264   0.05046   0.40762
  -0.00264  -0.05046  -0.40762
  -0.02804  -0.01638   0.41980
 vibration     2
   0.12660  -0.27540   0.01499
   0.40918   0.36497  -0.00523
   0.12765  -0.30824  -0.00523
   0.30296   0.14633   0.01499
   0.23281  -0.05677  -0.00523
   0.40812   0.39781   0.01499
 vibration     3
  -0.14221  -0.46618  -0.11820
  -0.01862  -0.25976  -0.11718
  -0.16369  -0.50162  -0.11718
  -0.05133  -0.31466  -0.11820
  -0.10950  -0.41128  -0.11718
   0.00287  -0.22431  -0.11820
 vibration     4
   0.01923   0.13534  -0.39191
   0.01039   0.09638  -0.38874
   0.02521   0.15114  -0.38874
   0.00994   0.10104  -0.39191
   0.01967   0.13069  -0.38874
   0.00440   0.08059  -0.39191
 vibration     5
   0.57046   0.06118   0.04985
  -0.18448  -0.24394  -0.08444
   0.47590  -0.33285  -0.08444
   0.15676   0.11688   0.04985
   0.22922  -0.29964  -0.08444
  -0.08992   0.15009   0.04985
 vibration     6
  -0.10418   0.02211   0.03929
  -0.29686   0.16746  -0.02488
  -0.28241  -0.39663  -0.02488
  -0.11324   0.37549   0.03929
  -0.28781  -0.18591  -0.02488
  -0.11863   0.58620   0.03929
 vibration     7
  -0.03197   0.28504  -0.06494
   0.18191  -0.31268   0.06475
  -0.41380  -0.15396   0.06475
   0.34122   0.18561  -0.06494
  -0.19128  -0.21325   0.06475
   0.56374   0.12632  -0.06494
 vibration     8
   0.04952  -0.09243  -0.00731
  -0.04952   0.09243   0.00731
  -0.11176   0.38553   0.05996
  -0.08396   0.56089  -0.05081
   0.08396  -0.56089   0.05081
   0.11176  -0.38553  -0.05996
 vibration     9
   0.11369  -0.00698  -0.03129
  -0.11369   0.00698   0.03129
  -0.40975  -0.05840   0.02252
  -0.53628  -0.16124  -0.02529
   0.53628   0.16124   0.02529
   0.40975   0.05840  -0.02252
 vibration    10
  -0.00000  -0.00446  -0.00096
   0.00000  -0.00446  -0.00096
   0.00000  -0.49151  -0.04020
   0.00000   0.50490   0.04306
  -0.00000   0.50490   0.04306
  -0.00000  -0.49151  -0.04020
 vibration    11
   0.00008   0.00000  -0.00000
   0.00008  -0.00000   0.00000
   0.49988   0.00000   0.00000
  -0.50012   0.00000  -0.00000
  -0.50012  -0.00000   0.00000
   0.49988  -0.00000  -0.00000
 vibration    12
   0.00000   0.04198  -0.00412
  -0.00000   0.04198  -0.00412
  -0.00000  -0.02307  -0.48730
   0.00000  -0.10279   0.49966
  -0.00000  -0.10279   0.49966
   0.00000  -0.02307  -0.48730
 vibration    13
   0.25145  -0.14582  -0.08496
  -0.25145   0.14582   0.08496
  -0.26824   0.15810   0.06614
   0.45702  -0.25870  -0.17655
  -0.45702   0.25870   0.17655
   0.26824  -0.15810  -0.06614
 vibration    14
  -0.30164   0.00000   0.00000
  -0.30164  -0.00000  -0.00000
   0.45240  -0.00000  -0.00000
   0.45205   0.00000   0.00000
   0.45205  -0.00000  -0.00000
   0.45240   0.00000   0.00000
 vibration    15
   0.00000  -0.29609   0.00659
  -0.00000  -0.29609   0.00659
  -0.00000   0.46159  -0.10303
   0.00000   0.42623   0.08326
  -0.00000   0.42623   0.08326
   0.00000   0.46159  -0.10303
 vibration    16
   0.02047  -0.01121  -0.00846
  -0.02047   0.01121   0.00846
  -0.02296   0.01019   0.50254
   0.03706  -0.02629   0.49410
  -0.03706   0.02629  -0.49410
   0.02296  -0.01019  -0.50254
 vibration    17
   0.00000  -0.00729  -0.30152
  -0.00000  -0.00729  -0.30152
  -0.00000   0.01274   0.45930
   0.00000   0.00913   0.44478
  -0.00000   0.00913   0.44478
   0.00000   0.01274   0.45930
 vibration    18
   0.01310  -0.00904   0.27839
  -0.01310   0.00904  -0.27839
  -0.24621   0.14958  -0.40584
   0.11177  -0.05266   0.39910
  -0.11177   0.05266  -0.39910
   0.24621  -0.14958   0.40584
