ANIMSTEPS  18
CRYSTAL
PRIMVEC
    3.183199986    0.000000000    0.000000000
   -1.591599993    2.756699986    0.000000000
    0.000000000    0.000000000   13.719356820
PRIMCOORD  1
      6   1
   Mo     1.59160   0.91890   3.42984   0.00137  -0.00144  -0.03919
   Mo    -0.00000   1.83780  10.28952  -0.00137   0.00144   0.03919
   S     -0.00000   1.83780   1.85438   0.00280   0.00164  -0.04198
   S      1.59160   0.91890   8.71406   0.00026   0.00505   0.04076
   S     -0.00000   1.83780   5.00530  -0.00026  -0.00505  -0.04076
   S      1.59160   0.91890  11.86498  -0.00280  -0.00164   0.04198
PRIMCOORD  2
      6   1
   Mo     1.59160   0.91890   3.42984   0.01266  -0.02754   0.00150
   Mo    -0.00000   1.83780  10.28952   0.04092   0.03650  -0.00052
   S     -0.00000   1.83780   1.85438   0.01277  -0.03082  -0.00052
   S      1.59160   0.91890   8.71406   0.03030   0.01463   0.00150
   S     -0.00000   1.83780   5.00530   0.02328  -0.00568  -0.00052
   S      1.59160   0.91890  11.86498   0.04081   0.03978   0.00150
PRIMCOORD  3
      6   1
   Mo     1.59160   0.91890   3.42984  -0.01422  -0.04662  -0.01182
   Mo    -0.00000   1.83780  10.28952  -0.00186  -0.02598  -0.01172
   S     -0.00000   1.83780   1.85438  -0.01637  -0.05016  -0.01172
   S      1.59160   0.91890   8.71406  -0.00513  -0.03147  -0.01182
   S     -0.00000   1.83780   5.00530  -0.01095  -0.04113  -0.01172
   S      1.59160   0.91890  11.86498   0.00029  -0.02243  -0.01182
PRIMCOORD  4
      6   1
   Mo     1.59160   0.91890   3.42984   0.00192   0.01353  -0.03919
   Mo    -0.00000   1.83780  10.28952   0.00104   0.00964  -0.03887
   S     -0.00000   1.83780   1.85438   0.00252   0.01511  -0.03887
   S      1.59160   0.91890   8.71406   0.00099   0.01010  -0.03919
   S     -0.00000   1.83780   5.00530   0.00197   0.01307  -0.03887
   S      1.59160   0.91890  11.86498   0.00044   0.00806  -0.03919
PRIMCOORD  5
      6   1
   Mo     1.59160   0.91890   3.42984   0.05705   0.00612   0.00499
   Mo    -0.00000   1.83780  10.28952  -0.01845  -0.02439  -0.00844
   S     -0.00000   1.83780   1.85438   0.04759  -0.03328  -0.00844
   S      1.59160   0.91890   8.71406   0.01568   0.01169   0.00499
   S     -0.00000   1.83780   5.00530   0.02292  -0.02996  -0.00844
   S      1.59160   0.91890  11.86498  -0.00899   0.01501   0.00499
PRIMCOORD  6
      6   1
   Mo     1.59160   0.91890   3.42984  -0.01042   0.00221   0.00393
   Mo    -0.00000   1.83780  10.28952  -0.02969   0.01675  -0.00249
   S     -0.00000   1.83780   1.85438  -0.02824  -0.03966  -0.00249
   S      1.59160   0.91890   8.71406  -0.01132   0.03755   0.00393
   S     -0.00000   1.83780   5.00530  -0.02878  -0.01859  -0.00249
   S      1.59160   0.91890  11.86498  -0.01186   0.05862   0.00393
PRIMCOORD  7
      6   1
   Mo     1.59160   0.91890   3.42984  -0.00320   0.02850  -0.00649
   Mo    -0.00000   1.83780  10.28952   0.01819  -0.03127   0.00648
   S     -0.00000   1.83780   1.85438  -0.04138  -0.01540   0.00648
   S      1.59160   0.91890   8.71406   0.03412   0.01856  -0.00649
   S     -0.00000   1.83780   5.00530  -0.01913  -0.02132   0.00648
   S      1.59160   0.91890  11.86498   0.05637   0.01263  -0.00649
PRIMCOORD  8
      6   1
   Mo     1.59160   0.91890   3.42984   0.00495  -0.00924  -0.00073
   Mo    -0.00000   1.83780  10.28952  -0.00495   0.00924   0.00073
   S     -0.00000   1.83780   1.85438  -0.01118   0.03855   0.00600
   S      1.59160   0.91890   8.71406  -0.00840   0.05609  -0.00508
   S     -0.00000   1.83780   5.00530   0.00840  -0.05609   0.00508
   S      1.59160   0.91890  11.86498   0.01118  -0.03855  -0.00600
PRIMCOORD  9
      6   1
   Mo     1.59160   0.91890   3.42984   0.01137  -0.00070  -0.00313
   Mo    -0.00000   1.83780  10.28952  -0.01137   0.00070   0.00313
   S     -0.00000   1.83780   1.85438  -0.04098  -0.00584   0.00225
   S      1.59160   0.91890   8.71406  -0.05363  -0.01612  -0.00253
   S     -0.00000   1.83780   5.00530   0.05363   0.01612   0.00253
   S      1.59160   0.91890  11.86498   0.04098   0.00584  -0.00225
PRIMCOORD 10
      6   1
   Mo     1.59160   0.91890   3.42984  -0.00000  -0.00045  -0.00010
   Mo    -0.00000   1.83780  10.28952   0.00000  -0.00045  -0.00010
   S     -0.00000   1.83780   1.85438   0.00000  -0.04915  -0.00402
   S      1.59160   0.91890   8.71406   0.00000   0.05049   0.00431
   S     -0.00000   1.83780   5.00530  -0.00000   0.05049   0.00431
   S      1.59160   0.91890  11.86498  -0.00000  -0.04915  -0.00402
PRIMCOORD 11
      6   1
   Mo     1.59160   0.91890   3.42984   0.00001   0.00000  -0.00000
   Mo    -0.00000   1.83780  10.28952   0.00001  -0.00000   0.00000
   S     -0.00000   1.83780   1.85438   0.04999   0.00000   0.00000
   S      1.59160   0.91890   8.71406  -0.05001   0.00000  -0.00000
   S     -0.00000   1.83780   5.00530  -0.05001  -0.00000   0.00000
   S      1.59160   0.91890  11.86498   0.04999  -0.00000  -0.00000
PRIMCOORD 12
      6   1
   Mo     1.59160   0.91890   3.42984   0.00000   0.00420  -0.00041
   Mo    -0.00000   1.83780  10.28952  -0.00000   0.00420  -0.00041
   S     -0.00000   1.83780   1.85438  -0.00000  -0.00231  -0.04873
   S      1.59160   0.91890   8.71406   0.00000  -0.01028   0.04997
   S     -0.00000   1.83780   5.00530  -0.00000  -0.01028   0.04997
   S      1.59160   0.91890  11.86498   0.00000  -0.00231  -0.04873
PRIMCOORD 13
      6   1
   Mo     1.59160   0.91890   3.42984   0.02515  -0.01458  -0.00850
   Mo    -0.00000   1.83780  10.28952  -0.02515   0.01458   0.00850
   S     -0.00000   1.83780   1.85438  -0.02682   0.01581   0.00661
   S      1.59160   0.91890   8.71406   0.04570  -0.02587  -0.01766
   S     -0.00000   1.83780   5.00530  -0.04570   0.02587   0.01766
   S      1.59160   0.91890  11.86498   0.02682  -0.01581  -0.00661
PRIMCOORD 14
      6   1
   Mo     1.59160   0.91890   3.42984  -0.03016   0.00000   0.00000
   Mo    -0.00000   1.83780  10.28952  -0.03016  -0.00000  -0.00000
   S     -0.00000   1.83780   1.85438   0.04524  -0.00000  -0.00000
   S      1.59160   0.91890   8.71406   0.04520   0.00000   0.00000
   S     -0.00000   1.83780   5.00530   0.04520  -0.00000  -0.00000
   S      1.59160   0.91890  11.86498   0.04524   0.00000   0.00000
PRIMCOORD 15
      6   1
   Mo     1.59160   0.91890   3.42984   0.00000  -0.02961   0.00066
   Mo    -0.00000   1.83780  10.28952  -0.00000  -0.02961   0.00066
   S     -0.00000   1.83780   1.85438  -0.00000   0.04616  -0.01030
   S      1.59160   0.91890   8.71406   0.00000   0.04262   0.00833
   S     -0.00000   1.83780   5.00530  -0.00000   0.04262   0.00833
   S      1.59160   0.91890  11.86498   0.00000   0.04616  -0.01030
PRIMCOORD 16
      6   1
   Mo     1.59160   0.91890   3.42984   0.00205  -0.00112  -0.00085
   Mo    -0.00000   1.83780  10.28952  -0.00205   0.00112   0.00085
   S     -0.00000   1.83780   1.85438  -0.00230   0.00102   0.05025
   S      1.59160   0.91890   8.71406   0.00371  -0.00263   0.04941
   S     -0.00000   1.83780   5.00530  -0.00371   0.00263  -0.04941
   S      1.59160   0.91890  11.86498   0.00230  -0.00102  -0.05025
PRIMCOORD 17
      6   1
   Mo     1.59160   0.91890   3.42984   0.00000  -0.00073  -0.03015
   Mo    -0.00000   1.83780  10.28952  -0.00000  -0.00073  -0.03015
   S     -0.00000   1.83780   1.85438  -0.00000   0.00127   0.04593
   S      1.59160   0.91890   8.71406   0.00000   0.00091   0.04448
   S     -0.00000   1.83780   5.00530  -0.00000   0.00091   0.04448
   S      1.59160   0.91890  11.86498   0.00000   0.00127   0.04593
PRIMCOORD 18
      6   1
   Mo     1.59160   0.91890   3.42984   0.00131  -0.00090   0.02784
   Mo    -0.00000   1.83780  10.28952  -0.00131   0.00090  -0.02784
   S     -0.00000   1.83780   1.85438  -0.02462   0.01496  -0.04058
   S      1.59160   0.91890   8.71406   0.01118  -0.00527   0.03991
   S     -0.00000   1.83780   5.00530  -0.01118   0.00527  -0.03991
   S      1.59160   0.91890  11.86498   0.02462  -0.01496   0.04058
