<?xml version="1.0" encoding="ISO-8859-1"?>
<modeling>
 <generator>
  <i name="program" type="string">vasp </i>
  <i name="version" type="string">5.3.5  </i>
  <i name="subversion" type="string">31Mar14 (build Mar 18 2017 11:34:20) complex                          parallel </i>
  <i name="platform" type="string">LinuxIFC </i>
  <i name="date" type="string">2018 05 01 </i>
  <i name="time" type="string">19:00:00 </i>
 </generator>
 <incar>
  <i type="string" name="SYSTEM"> 2H-MoS2</i>
  <i type="string" name="PREC">accurate</i>
  <i type="string" name="ALGO"> Fast</i>
  <i type="logical" name="ADDGRID"> T  </i>
  <i type="int" name="IBRION">     2</i>
  <i name="EDIFF">      0.00001000</i>
  <i type="int" name="NSW">  1000</i>
  <i type="int" name="ISIF">     3</i>
  <i type="int" name="ISYM">     2</i>
  <i name="ENCUT">    600.00000000</i>
  <i name="POTIM">      0.50000000</i>
  <i type="logical" name="LREAL"> F  </i>
  <i type="int" name="ISMEAR">     0</i>
  <i name="SIGMA">      0.05000000</i>
  <i type="int" name="NWRITE">     1</i>
  <i type="logical" name="LWAVE"> F  </i>
  <i type="logical" name="LCHARG"> F  </i>
 </incar>
 <kpoints>
  <generation param="Gamma">
   <v type="int" name="divisions">      12       12       12 </v>
   <v name="usershift">      0.00000000       0.00000000       0.00000000 </v>
   <v name="genvec1">      0.08333333       0.00000000       0.00000000 </v>
   <v name="genvec2">      0.00000000       0.08333333       0.00000000 </v>
   <v name="genvec3">      0.00000000       0.00000000       0.08333333 </v>
   <v name="shift">      0.00000000       0.00000000       0.00000000 </v>
  </generation>
  <varray name="kpointlist" >
   <v>       0.00000000       0.00000000       0.00000000 </v>
   <v>       0.08333333       0.00000000       0.00000000 </v>
   <v>       0.16666667       0.00000000       0.00000000 </v>
   <v>       0.25000000       0.00000000       0.00000000 </v>
   <v>       0.33333333       0.00000000       0.00000000 </v>
   <v>       0.41666667       0.00000000       0.00000000 </v>
   <v>       0.50000000       0.00000000       0.00000000 </v>
   <v>       0.08333333       0.08333333       0.00000000 </v>
   <v>       0.16666667       0.08333333       0.00000000 </v>
   <v>       0.25000000       0.08333333       0.00000000 </v>
   <v>       0.33333333       0.08333333       0.00000000 </v>
   <v>       0.41666667       0.08333333       0.00000000 </v>
   <v>       0.16666667       0.16666667       0.00000000 </v>
   <v>       0.25000000       0.16666667       0.00000000 </v>
   <v>       0.33333333       0.16666667       0.00000000 </v>
   <v>       0.41666667       0.16666667       0.00000000 </v>
   <v>       0.25000000       0.25000000       0.00000000 </v>
   <v>       0.33333333       0.25000000       0.00000000 </v>
   <v>       0.33333333       0.33333333       0.00000000 </v>
   <v>       0.00000000       0.00000000       0.08333333 </v>
   <v>       0.08333333       0.00000000       0.08333333 </v>
   <v>       0.16666667       0.00000000       0.08333333 </v>
   <v>       0.25000000       0.00000000       0.08333333 </v>
   <v>       0.33333333       0.00000000       0.08333333 </v>
   <v>       0.41666667       0.00000000       0.08333333 </v>
   <v>       0.50000000       0.00000000       0.08333333 </v>
   <v>       0.08333333       0.08333333       0.08333333 </v>
   <v>       0.16666667       0.08333333       0.08333333 </v>
   <v>       0.25000000       0.08333333       0.08333333 </v>
   <v>       0.33333333       0.08333333       0.08333333 </v>
   <v>       0.41666667       0.08333333       0.08333333 </v>
   <v>       0.16666667       0.16666667       0.08333333 </v>
   <v>       0.25000000       0.16666667       0.08333333 </v>
   <v>       0.33333333       0.16666667       0.08333333 </v>
   <v>       0.41666667       0.16666667       0.08333333 </v>
   <v>       0.25000000       0.25000000       0.08333333 </v>
   <v>       0.33333333       0.25000000       0.08333333 </v>
   <v>       0.33333333       0.33333333       0.08333333 </v>
   <v>       0.00000000       0.00000000       0.16666667 </v>
   <v>       0.08333333       0.00000000       0.16666667 </v>
   <v>       0.16666667       0.00000000       0.16666667 </v>
   <v>       0.25000000       0.00000000       0.16666667 </v>
   <v>       0.33333333       0.00000000       0.16666667 </v>
   <v>       0.41666667       0.00000000       0.16666667 </v>
   <v>       0.50000000       0.00000000       0.16666667 </v>
   <v>       0.08333333       0.08333333       0.16666667 </v>
   <v>       0.16666667       0.08333333       0.16666667 </v>
   <v>       0.25000000       0.08333333       0.16666667 </v>
   <v>       0.33333333       0.08333333       0.16666667 </v>
   <v>       0.41666667       0.08333333       0.16666667 </v>
   <v>       0.16666667       0.16666667       0.16666667 </v>
   <v>       0.25000000       0.16666667       0.16666667 </v>
   <v>       0.33333333       0.16666667       0.16666667 </v>
   <v>       0.41666667       0.16666667       0.16666667 </v>
   <v>       0.25000000       0.25000000       0.16666667 </v>
   <v>       0.33333333       0.25000000       0.16666667 </v>
   <v>       0.33333333       0.33333333       0.16666667 </v>
   <v>       0.00000000       0.00000000       0.25000000 </v>
   <v>       0.08333333       0.00000000       0.25000000 </v>
   <v>       0.16666667       0.00000000       0.25000000 </v>
   <v>       0.25000000       0.00000000       0.25000000 </v>
   <v>       0.33333333       0.00000000       0.25000000 </v>
   <v>       0.41666667       0.00000000       0.25000000 </v>
   <v>       0.50000000       0.00000000       0.25000000 </v>
   <v>       0.08333333       0.08333333       0.25000000 </v>
   <v>       0.16666667       0.08333333       0.25000000 </v>
   <v>       0.25000000       0.08333333       0.25000000 </v>
   <v>       0.33333333       0.08333333       0.25000000 </v>
   <v>       0.41666667       0.08333333       0.25000000 </v>
   <v>       0.16666667       0.16666667       0.25000000 </v>
   <v>       0.25000000       0.16666667       0.25000000 </v>
   <v>       0.33333333       0.16666667       0.25000000 </v>
   <v>       0.41666667       0.16666667       0.25000000 </v>
   <v>       0.25000000       0.25000000       0.25000000 </v>
   <v>       0.33333333       0.25000000       0.25000000 </v>
   <v>       0.33333333       0.33333333       0.25000000 </v>
   <v>       0.00000000       0.00000000       0.33333333 </v>
   <v>       0.08333333       0.00000000       0.33333333 </v>
   <v>       0.16666667       0.00000000       0.33333333 </v>
   <v>       0.25000000       0.00000000       0.33333333 </v>
   <v>       0.33333333       0.00000000       0.33333333 </v>
   <v>       0.41666667       0.00000000       0.33333333 </v>
   <v>       0.50000000       0.00000000       0.33333333 </v>
   <v>       0.08333333       0.08333333       0.33333333 </v>
   <v>       0.16666667       0.08333333       0.33333333 </v>
   <v>       0.25000000       0.08333333       0.33333333 </v>
   <v>       0.33333333       0.08333333       0.33333333 </v>
   <v>       0.41666667       0.08333333       0.33333333 </v>
   <v>       0.16666667       0.16666667       0.33333333 </v>
   <v>       0.25000000       0.16666667       0.33333333 </v>
   <v>       0.33333333       0.16666667       0.33333333 </v>
   <v>       0.41666667       0.16666667       0.33333333 </v>
   <v>       0.25000000       0.25000000       0.33333333 </v>
   <v>       0.33333333       0.25000000       0.33333333 </v>
   <v>       0.33333333       0.33333333       0.33333333 </v>
   <v>       0.00000000       0.00000000       0.41666667 </v>
   <v>       0.08333333       0.00000000       0.41666667 </v>
   <v>       0.16666667       0.00000000       0.41666667 </v>
   <v>       0.25000000       0.00000000       0.41666667 </v>
   <v>       0.33333333       0.00000000       0.41666667 </v>
   <v>       0.41666667       0.00000000       0.41666667 </v>
   <v>       0.50000000       0.00000000       0.41666667 </v>
   <v>       0.08333333       0.08333333       0.41666667 </v>
   <v>       0.16666667       0.08333333       0.41666667 </v>
   <v>       0.25000000       0.08333333       0.41666667 </v>
   <v>       0.33333333       0.08333333       0.41666667 </v>
   <v>       0.41666667       0.08333333       0.41666667 </v>
   <v>       0.16666667       0.16666667       0.41666667 </v>
   <v>       0.25000000       0.16666667       0.41666667 </v>
   <v>       0.33333333       0.16666667       0.41666667 </v>
   <v>       0.41666667       0.16666667       0.41666667 </v>
   <v>       0.25000000       0.25000000       0.41666667 </v>
   <v>       0.33333333       0.25000000       0.41666667 </v>
   <v>       0.33333333       0.33333333       0.41666667 </v>
   <v>       0.00000000       0.00000000       0.50000000 </v>
   <v>       0.08333333       0.00000000       0.50000000 </v>
   <v>       0.16666667       0.00000000       0.50000000 </v>
   <v>       0.25000000       0.00000000       0.50000000 </v>
   <v>       0.33333333       0.00000000       0.50000000 </v>
   <v>       0.41666667       0.00000000       0.50000000 </v>
   <v>       0.50000000       0.00000000       0.50000000 </v>
   <v>       0.08333333       0.08333333       0.50000000 </v>
   <v>       0.16666667       0.08333333       0.50000000 </v>
   <v>       0.25000000       0.08333333       0.50000000 </v>
   <v>       0.33333333       0.08333333       0.50000000 </v>
   <v>       0.41666667       0.08333333       0.50000000 </v>
   <v>       0.16666667       0.16666667       0.50000000 </v>
   <v>       0.25000000       0.16666667       0.50000000 </v>
   <v>       0.33333333       0.16666667       0.50000000 </v>
   <v>       0.41666667       0.16666667       0.50000000 </v>
   <v>       0.25000000       0.25000000       0.50000000 </v>
   <v>       0.33333333       0.25000000       0.50000000 </v>
   <v>       0.33333333       0.33333333       0.50000000 </v>
  </varray>
  <varray name="weights" >
   <v>       0.00057870 </v>
   <v>       0.00347222 </v>
   <v>       0.00347222 </v>
   <v>       0.00347222 </v>
   <v>       0.00347222 </v>
   <v>       0.00347222 </v>
   <v>       0.00173611 </v>
   <v>       0.00347222 </v>
   <v>       0.00694444 </v>
   <v>       0.00694444 </v>
   <v>       0.00694444 </v>
   <v>       0.00694444 </v>
   <v>       0.00347222 </v>
   <v>       0.00694444 </v>
   <v>       0.00694444 </v>
   <v>       0.00347222 </v>
   <v>       0.00347222 </v>
   <v>       0.00694444 </v>
   <v>       0.00115741 </v>
   <v>       0.00115741 </v>
   <v>       0.00694444 </v>
   <v>       0.00694444 </v>
   <v>       0.00694444 </v>
   <v>       0.00694444 </v>
   <v>       0.00694444 </v>
   <v>       0.00347222 </v>
   <v>       0.00694444 </v>
   <v>       0.01388889 </v>
   <v>       0.01388889 </v>
   <v>       0.01388889 </v>
   <v>       0.01388889 </v>
   <v>       0.00694444 </v>
   <v>       0.01388889 </v>
   <v>       0.01388889 </v>
   <v>       0.00694444 </v>
   <v>       0.00694444 </v>
   <v>       0.01388889 </v>
   <v>       0.00231481 </v>
   <v>       0.00115741 </v>
   <v>       0.00694444 </v>
   <v>       0.00694444 </v>
   <v>       0.00694444 </v>
   <v>       0.00694444 </v>
   <v>       0.00694444 </v>
   <v>       0.00347222 </v>
   <v>       0.00694444 </v>
   <v>       0.01388889 </v>
   <v>       0.01388889 </v>
   <v>       0.01388889 </v>
   <v>       0.01388889 </v>
   <v>       0.00694444 </v>
   <v>       0.01388889 </v>
   <v>       0.01388889 </v>
   <v>       0.00694444 </v>
   <v>       0.00694444 </v>
   <v>       0.01388889 </v>
   <v>       0.00231481 </v>
   <v>       0.00115741 </v>
   <v>       0.00694444 </v>
   <v>       0.00694444 </v>
   <v>       0.00694444 </v>
   <v>       0.00694444 </v>
   <v>       0.00694444 </v>
   <v>       0.00347222 </v>
   <v>       0.00694444 </v>
   <v>       0.01388889 </v>
   <v>       0.01388889 </v>
   <v>       0.01388889 </v>
   <v>       0.01388889 </v>
   <v>       0.00694444 </v>
   <v>       0.01388889 </v>
   <v>       0.01388889 </v>
   <v>       0.00694444 </v>
   <v>       0.00694444 </v>
   <v>       0.01388889 </v>
   <v>       0.00231481 </v>
   <v>       0.00115741 </v>
   <v>       0.00694444 </v>
   <v>       0.00694444 </v>
   <v>       0.00694444 </v>
   <v>       0.00694444 </v>
   <v>       0.00694444 </v>
   <v>       0.00347222 </v>
   <v>       0.00694444 </v>
   <v>       0.01388889 </v>
   <v>       0.01388889 </v>
   <v>       0.01388889 </v>
   <v>       0.01388889 </v>
   <v>       0.00694444 </v>
   <v>       0.01388889 </v>
   <v>       0.01388889 </v>
   <v>       0.00694444 </v>
   <v>       0.00694444 </v>
   <v>       0.01388889 </v>
   <v>       0.00231481 </v>
   <v>       0.00115741 </v>
   <v>       0.00694444 </v>
   <v>       0.00694444 </v>
   <v>       0.00694444 </v>
   <v>       0.00694444 </v>
   <v>       0.00694444 </v>
   <v>       0.00347222 </v>
   <v>       0.00694444 </v>
   <v>       0.01388889 </v>
   <v>       0.01388889 </v>
   <v>       0.01388889 </v>
   <v>       0.01388889 </v>
   <v>       0.00694444 </v>
   <v>       0.01388889 </v>
   <v>       0.01388889 </v>
   <v>       0.00694444 </v>
   <v>       0.00694444 </v>
   <v>       0.01388889 </v>
   <v>       0.00231481 </v>
   <v>       0.00057870 </v>
   <v>       0.00347222 </v>
   <v>       0.00347222 </v>
   <v>       0.00347222 </v>
   <v>       0.00347222 </v>
   <v>       0.00347222 </v>
   <v>       0.00173611 </v>
   <v>       0.00347222 </v>
   <v>       0.00694444 </v>
   <v>       0.00694444 </v>
   <v>       0.00694444 </v>
   <v>       0.00694444 </v>
   <v>       0.00347222 </v>
   <v>       0.00694444 </v>
   <v>       0.00694444 </v>
   <v>       0.00347222 </v>
   <v>       0.00347222 </v>
   <v>       0.00694444 </v>
   <v>       0.00115741 </v>
  </varray>
 </kpoints>
 <parameters>
  <separator name="general" >
   <i type="string" name="SYSTEM">2H-MoS2</i>
   <i type="logical" name="LCOMPAT"> F  </i>
  </separator>
  <separator name="electronic" >
   <i type="string" name="PREC">accura</i>
   <i name="ENMAX">    600.00000000</i>
   <i name="ENAUG">    345.27800000</i>
   <i name="EDIFF">      0.00001000</i>
   <i type="int" name="IALGO">    68</i>
   <i type="int" name="IWAVPR">    11</i>
   <i type="int" name="NBANDS">    32</i>
   <i name="NELECT">     36.00000000</i>
   <i type="int" name="TURBO">     0</i>
   <i type="int" name="IRESTART">     0</i>
   <i type="int" name="NREBOOT">     0</i>
   <i type="int" name="NMIN">     0</i>
   <i name="EREF">      0.00000000</i>
   <separator name="electronic smearing" >
    <i type="int" name="ISMEAR">     0</i>
    <i name="SIGMA">      0.05000000</i>
    <i name="KSPACING">      0.50000000</i>
    <i type="logical" name="KGAMMA"> T  </i>
   </separator>
   <separator name="electronic projectors" >
    <i type="logical" name="LREAL"> F  </i>
    <v name="ROPT">      0.00000000      0.00000000</v>
    <i type="int" name="LMAXPAW">  -100</i>
    <i type="int" name="LMAXMIX">     2</i>
    <i type="logical" name="NLSPLINE"> F  </i>
   </separator>
   <separator name="electronic startup" >
    <i type="int" name="ISTART">     0</i>
    <i type="int" name="ICHARG">     2</i>
    <i type="int" name="INIWAV">     1</i>
   </separator>
   <separator name="electronic spin" >
    <i type="int" name="ISPIN">     1</i>
    <i type="logical" name="LNONCOLLINEAR"> F  </i>
    <v name="MAGMOM">      1.00000000      1.00000000      1.00000000      1.00000000      1.00000000      1.00000000</v>
    <i name="NUPDOWN">     -1.00000000</i>
    <i type="logical" name="LSORBIT"> F  </i>
    <v name="SAXIS">      0.00000000      0.00000000      1.00000000</v>
    <i type="logical" name="LSPIRAL"> F  </i>
    <v name="QSPIRAL">      0.00000000      0.00000000      0.00000000</v>
    <i type="logical" name="LZEROZ"> F  </i>
   </separator>
   <separator name="electronic exchange-correlation" >
    <i type="logical" name="LASPH"> F  </i>
    <i type="logical" name="LMETAGGA"> F  </i>
   </separator>
   <separator name="electronic convergence" >
    <i type="int" name="NELM">    60</i>
    <i type="int" name="NELMDL">     0</i>
    <i type="int" name="NELMIN">     2</i>
    <i name="ENINI">    600.00000000</i>
    <separator name="electronic convergence detail" >
     <i type="logical" name="LDIAG"> T  </i>
     <i type="logical" name="LSUBROT"> F  </i>
     <i name="WEIMIN">      0.00100000</i>
     <i name="EBREAK">      0.00000008</i>
     <i name="DEPER">      0.30000000</i>
     <i type="int" name="NRMM">     4</i>
     <i name="TIME">      0.40000000</i>
    </separator>
   </separator>
   <separator name="electronic mixer" >
    <i name="AMIX">      0.40000000</i>
    <i name="BMIX">      1.00000000</i>
    <i name="AMIN">      0.10000000</i>
    <i name="AMIX_MAG">      1.60000000</i>
    <i name="BMIX_MAG">      1.00000000</i>
    <separator name="electronic mixer details" >
     <i type="int" name="IMIX">     4</i>
     <i type="int" name="MAXMIX">   -45</i>
     <i name="WC">    100.00000000</i>
     <i type="int" name="INIMIX">     1</i>
     <i type="int" name="MIXPRE">     1</i>
     <i type="int" name="MREMOVE">     5</i>
    </separator>
   </separator>
   <separator name="electronic dipolcorrection" >
    <i type="logical" name="LDIPOL"> F  </i>
    <i type="logical" name="LMONO"> F  </i>
    <i type="int" name="IDIPOL">     0</i>
    <i name="EPSILON">      1.00000000</i>
    <v name="DIPOL">   -100.00000000   -100.00000000   -100.00000000</v>
    <i name="EFIELD">      0.00000000</i>
   </separator>
  </separator>
  <separator name="grids" >
   <i type="int" name="NGX">    28</i>
   <i type="int" name="NGY">    28</i>
   <i type="int" name="NGZ">   120</i>
   <i type="int" name="NGXF">    56</i>
   <i type="int" name="NGYF">    56</i>
   <i type="int" name="NGZF">   240</i>
   <i type="logical" name="ADDGRID"> T  </i>
  </separator>
  <separator name="ionic" >
   <i type="int" name="NSW">  1000</i>
   <i type="int" name="IBRION">     2</i>
   <i type="int" name="ISIF">     3</i>
   <i name="PSTRESS">      0.00000000</i>
   <i name="EDIFFG">      0.00010000</i>
   <i type="int" name="NFREE">     1</i>
   <i name="POTIM">      0.50000000</i>
   <i name="SMASS">     -3.00000000</i>
   <i name="SCALEE">      1.00000000</i>
  </separator>
  <separator name="ionic md" >
   <i name="TEBEG">      0.00010000</i>
   <i name="TEEND">      0.00010000</i>
   <i type="int" name="NBLOCK">     1</i>
   <i type="int" name="KBLOCK">  1000</i>
   <i type="int" name="NPACO">   256</i>
   <i name="APACO">     16.00000000</i>
  </separator>
  <separator name="symmetry" >
   <i type="int" name="ISYM">     2</i>
   <i name="SYMPREC">      0.00001000</i>
  </separator>
  <separator name="dos" >
   <i type="logical" name="LORBIT"> F  </i>
   <v name="RWIGS">     -1.00000000     -1.00000000</v>
   <i type="int" name="NEDOS">   301</i>
   <i name="EMIN">     10.00000000</i>
   <i name="EMAX">    -10.00000000</i>
   <i name="EFERMI">      0.00000000</i>
  </separator>
  <separator name="writing" >
   <i type="int" name="NWRITE">     1</i>
   <i type="logical" name="LWAVE"> F  </i>
   <i type="logical" name="LCHARG"> F  </i>
   <i type="logical" name="LPARD"> F  </i>
   <i type="logical" name="LVTOT"> F  </i>
   <i type="logical" name="LVHAR"> F  </i>
   <i type="logical" name="LELF"> F  </i>
   <i type="logical" name="LOPTICS"> F  </i>
   <v name="STM">      0.00000000      0.00000000      0.00000000      0.00000000      0.00000000      0.00000000      0.00000000</v>
  </separator>
  <separator name="performance" >
   <i type="int" name="NPAR">    16</i>
   <i type="int" name="NSIM">     4</i>
   <i type="int" name="NBLK">    -1</i>
   <i type="logical" name="LPLANE"> T  </i>
   <i type="logical" name="LSCALAPACK"> T  </i>
   <i type="logical" name="LSCAAWARE"> F  </i>
   <i type="logical" name="LSCALU"> F  </i>
   <i type="logical" name="LASYNC"> F  </i>
   <i type="logical" name="LORBITALREAL"> F  </i>
  </separator>
  <separator name="miscellaneous" >
   <i type="int" name="IDIOT">     3</i>
   <i type="logical" name="LMUSIC"> F  </i>
   <v name="POMASS">     95.94000000     32.06600000</v>
   <v name="DARWINR">      0.00000000      0.00000000</v>
   <v name="DARWINV">      1.00000000      1.00000000</v>
   <i type="logical" name="LCORR"> T  </i>
  </separator>
  <i type="logical" name="GGA_COMPAT"> T  </i>
  <i type="logical" name="LBERRY"> F  </i>
  <i type="int" name="ICORELEVEL">     0</i>
  <i type="logical" name="LDAU"> F  </i>
  <i type="int" name="I_CONSTRAINED_M">     0</i>
  <separator name="electronic exchange-correlation" >
   <i type="string" name="GGA">--</i>
   <i type="int" name="VOSKOWN">     0</i>
   <i type="logical" name="LHFCALC"> F  </i>
   <i type="string" name="PRECFOCK"></i>
   <i type="logical" name="LSYMGRAD"> F  </i>
   <i type="logical" name="LHFONE"> F  </i>
   <i type="logical" name="LRHFCALC"> F  </i>
   <i type="logical" name="LTHOMAS"> F  </i>
   <i type="logical" name="LMODELHF"> F  </i>
   <i name="ENCUT4O">     -1.00000000</i>
   <i type="int" name="EXXOEP">     0</i>
   <i type="int" name="FOURORBIT">     0</i>
   <i name="AEXX">      0.00000000</i>
   <i name="HFALPHA">      0.00000000</i>
   <i name="MCALPHA">      0.00000000</i>
   <i name="ALDAX">      1.00000000</i>
   <i name="AGGAX">      1.00000000</i>
   <i name="ALDAC">      1.00000000</i>
   <i name="AGGAC">      1.00000000</i>
   <i type="int" name="NKREDX">     1</i>
   <i type="int" name="NKREDY">     1</i>
   <i type="int" name="NKREDZ">     1</i>
   <i type="logical" name="SHIFTRED"> F  </i>
   <i type="logical" name="ODDONLY"> F  </i>
   <i type="logical" name="EVENONLY"> F  </i>
   <i type="int" name="LMAXFOCK">     0</i>
   <i type="int" name="NMAXFOCKAE">     0</i>
   <i type="logical" name="LFOCKAEDFT"> F  </i>
   <i name="HFSCREEN">      0.00000000</i>
   <i name="HFSCREENC">      0.00000000</i>
   <i type="int" name="NBANDSGWLOW">     0</i>
  </separator>
  <separator name="vdW DFT" >
   <i type="logical" name="LUSE_VDW"> F  </i>
   <i name="Zab_VDW">     -0.84910000</i>
   <i name="PARAM1">      0.12340000</i>
   <i name="PARAM2">      1.00000000</i>
   <i name="PARAM3">      0.00000000</i>
  </separator>
  <separator name="model GW" >
   <i type="int" name="MODEL_GW">     0</i>
   <i name="MODEL_EPS0">     13.11510542</i>
   <i name="MODEL_ALPHA">      1.00000000</i>
  </separator>
  <separator name="linear response parameters" >
   <i type="logical" name="LEPSILON"> F  </i>
   <i type="logical" name="LRPA"> F  </i>
   <i type="logical" name="LNABLA"> F  </i>
   <i type="logical" name="LVEL"> F  </i>
   <i type="int" name="KINTER">     0</i>
   <i name="CSHIFT">      0.10000000</i>
   <i name="OMEGAMAX">     -1.00000000</i>
   <i name="DEG_THRESHOLD">      0.00200000</i>
  </separator>
  <separator name="orbital magnetization" >
   <i type="logical" name="NUCIND"> F  </i>
   <v name="MAGPOS">      0.00000000      0.00000000      0.00000000</v>
   <i type="logical" name="LNICSALL"> T  </i>
   <i type="logical" name="ORBITALMAG"> F  </i>
   <i type="logical" name="LMAGBLOCH"> F  </i>
   <i type="logical" name="LCHIMAG"> F  </i>
   <i type="logical" name="LGAUGE"> T  </i>
   <i type="int" name="MAGATOM">     0</i>
   <v name="MAGDIPOL">      0.00000000      0.00000000      0.00000000</v>
   <v name="AVECCONST">      0.00000000      0.00000000      0.00000000</v>
  </separator>
  <separator name="response functions" >
   <i type="logical" name="LADDER"> F  </i>
   <i type="logical" name="LFXC"> F  </i>
   <i type="logical" name="LHARTREE"> T  </i>
   <i type="int" name="IBSE">     0</i>
   <i type="logical" name="LTCTE"> F  </i>
   <i type="logical" name="LTETE"> F  </i>
   <i type="logical" name="LTRIPLET"> F  </i>
   <i type="logical" name="LFXCEPS"> F  </i>
   <i type="logical" name="LFXHEG"> F  </i>
   <i type="logical" name="L2ORDER"> F  </i>
   <i type="logical" name="LUSEW"> F  </i>
   <i name="ENCUTGW">     -2.00000000</i>
   <i name="ENCUTGWSOFT">     -2.00000000</i>
   <i name="ENCUTLF">     -1.00000000</i>
   <i type="int" name="LMAXMP2">    -1</i>
   <i name="SCISSOR">      0.00000000</i>
   <i type="int" name="NOMEGA">     0</i>
   <i type="int" name="NOMEGAR">     0</i>
   <i type="int" name="NBANDSGW">    -1</i>
   <i type="int" name="NBANDSO">    -1</i>
   <i type="int" name="NBANDSV">    -1</i>
   <i type="int" name="NELM">     1</i>
   <i type="int" name="DIM">     3</i>
   <i type="int" name="ANTIRES">     0</i>
   <i name="OMEGAMAX">    -30.00000000</i>
   <i name="OMEGAMIN">    -30.00000000</i>
   <i name="OMEGATL">   -200.00000000</i>
   <i type="int" name="OMEGAGRID">     0</i>
   <i name="CSHIFT">     -0.10000000</i>
   <i type="logical" name="SELFENERGY"> F  </i>
   <i type="logical" name="LSPECTRAL"> F  </i>
   <i type="logical" name="ODDONLYGW"> F  </i>
   <i type="logical" name="EVENONLYGW"> F  </i>
   <i type="int" name="NKREDLFX">     1</i>
   <i type="int" name="NKREDLFY">     1</i>
   <i type="int" name="NKREDLFZ">     1</i>
   <i type="int" name="MAXMEM">  1800</i>
   <i type="int" name="TELESCOPE">     0</i>
   <i type="int" name="TAUPAR">     1</i>
  </separator>
  <separator name="External order field" >
   <i name="OFIELD_KAPPA">      0.00000000</i>
   <v name="OFIELD_K">      0.00000000      0.00000000      0.00000000</v>
   <i name="OFIELD_Q6_NEAR">      0.00000000</i>
   <i name="OFIELD_Q6_FAR">      0.00000000</i>
   <i name="OFIELD_A">      0.00000000</i>
  </separator>
 </parameters>
 <atominfo>
  <atoms>       6 </atoms>
  <types>       2 </types>
  <array name="atoms" >
   <dimension dim="1">ion</dimension>
   <field type="string">element</field>
   <field type="int">atomtype</field>
   <set>
    <rc><c>Mo</c><c>   1</c></rc>
    <rc><c>Mo</c><c>   1</c></rc>
    <rc><c>S </c><c>   2</c></rc>
    <rc><c>S </c><c>   2</c></rc>
    <rc><c>S </c><c>   2</c></rc>
    <rc><c>S </c><c>   2</c></rc>
   </set>
  </array>
  <array name="atomtypes" >
   <dimension dim="1">type</dimension>
   <field type="int">atomspertype</field>
   <field type="string">element</field>
   <field>mass</field>
   <field>valence</field>
   <field type="string">pseudopotential</field>
   <set>
    <rc><c>   2</c><c>Mo</c><c>     95.94000000</c><c>      6.00000000</c><c>  PAW_PBE Mo 08Apr2002                  </c></rc>
    <rc><c>   4</c><c>S </c><c>     32.06600000</c><c>      6.00000000</c><c>  PAW_PBE S 06Sep2000                   </c></rc>
   </set>
  </array>
 </atominfo>
 <structure name="initialpos" >
  <crystal>
   <varray name="basis" >
    <v>       3.19031600       0.00000000       0.00000000 </v>
    <v>      -1.59515800       2.76289400       0.00000000 </v>
    <v>       0.00000000       0.00000000      14.87900400 </v>
   </varray>
   <i name="volume">    131.15105418 </i>
   <varray name="rec_basis" >
    <v>       0.31344857       0.18096966       0.00000000 </v>
    <v>       0.00000000       0.36193933       0.00000000 </v>
    <v>       0.00000000       0.00000000       0.06720880 </v>
   </varray>
  </crystal>
  <varray name="positions" >
   <v>       0.66666700       0.33333300       0.25000000 </v>
   <v>       0.33333300       0.66666700       0.75000000 </v>
   <v>       0.33333300       0.66666700       0.14482600 </v>
   <v>       0.66666700       0.33333300       0.64482600 </v>
   <v>       0.33333300       0.66666700       0.35517400 </v>
   <v>       0.66666700       0.33333300       0.85517400 </v>
  </varray>
 </structure>
 <calculation>
  <scstep>
   <time name="dav">    5.15    5.26</time>
   <time name="total">    5.28    5.42</time>
   <energy>
    <i name="alphaZ">     90.42794078 </i>
    <i name="ewald">  -1146.88908035 </i>
    <i name="hartreedc">   -535.10212528 </i>
    <i name="XCdc">    -72.59361985 </i>
    <i name="pawpsdc">   1401.10264413 </i>
    <i name="pawaedc">  -1246.00898674 </i>
    <i name="eentropy">     -0.00377328 </i>
    <i name="bandstr">    154.65958154 </i>
    <i name="atom">   1542.32269226 </i>
    <i name="e_fr_energy">    187.91527321 </i>
    <i name="e_wo_entrp">    187.91904649 </i>
    <i name="e_0_energy">    187.91715985 </i>
   </energy>
  </scstep>
  <scstep>
   <time name="dav">    4.39    4.39</time>
   <time name="total">    4.40    4.40</time>
   <energy>
    <i name="e_fr_energy">    -33.96558654 </i>
    <i name="e_wo_entrp">    -33.96558654 </i>
    <i name="e_0_energy">    -33.96558654 </i>
   </energy>
  </scstep>
  <scstep>
   <time name="dav">    4.67    4.67</time>
   <time name="total">    4.67    4.67</time>
   <energy>
    <i name="e_fr_energy">    -46.63916015 </i>
    <i name="e_wo_entrp">    -46.63916015 </i>
    <i name="e_0_energy">    -46.63916015 </i>
   </energy>
  </scstep>
  <scstep>
   <time name="dav">    4.55    4.55</time>
   <time name="total">    4.55    4.56</time>
   <energy>
    <i name="e_fr_energy">    -46.81579246 </i>
    <i name="e_wo_entrp">    -46.81579246 </i>
    <i name="e_0_energy">    -46.81579246 </i>
   </energy>
  </scstep>
  <scstep>
   <time name="dav">    4.81    4.88</time>
   <time name="total">    4.95    5.01</time>
   <energy>
    <i name="e_fr_energy">    -46.82031226 </i>
    <i name="e_wo_entrp">    -46.82031226 </i>
    <i name="e_0_energy">    -46.82031226 </i>
   </energy>
  </scstep>
  <scstep>
   <time name="diag">    1.85    1.85</time>
   <time name="diis">    0.55    0.55</time>
   <time name="orth">    0.10    0.10</time>
   <time name="total">    2.74    2.74</time>
   <energy>
    <i name="e_fr_energy">    -44.50201717 </i>
    <i name="e_wo_entrp">    -44.50201717 </i>
    <i name="e_0_energy">    -44.50201717 </i>
   </energy>
  </scstep>
  <scstep>
   <time name="diag">    1.89    1.89</time>
   <time name="diis">    0.60    0.60</time>
   <time name="orth">    0.11    0.11</time>
   <time name="total">    2.83    2.83</time>
   <energy>
    <i name="e_fr_energy">    -43.99148911 </i>
    <i name="e_wo_entrp">    -43.99148911 </i>
    <i name="e_0_energy">    -43.99148911 </i>
   </energy>
  </scstep>
  <scstep>
   <time name="diag">    1.79    1.79</time>
   <time name="diis">    0.54    0.54</time>
   <time name="orth">    0.14    0.14</time>
   <time name="total">    2.70    2.70</time>
   <energy>
    <i name="e_fr_energy">    -43.62141316 </i>
    <i name="e_wo_entrp">    -43.62141316 </i>
    <i name="e_0_energy">    -43.62141316 </i>
   </energy>
  </scstep>
  <scstep>
   <time name="diag">    1.77    1.77</time>
   <time name="diis">    0.53    0.53</time>
   <time name="orth">    0.10    0.10</time>
   <time name="total">    2.64    2.64</time>
   <energy>
    <i name="e_fr_energy">    -43.60566670 </i>
    <i name="e_wo_entrp">    -43.60566670 </i>
    <i name="e_0_energy">    -43.60566670 </i>
   </energy>
  </scstep>
  <scstep>
   <time name="diag">    1.85    1.85</time>
   <time name="diis">    0.53    0.53</time>
   <time name="orth">    0.10    0.10</time>
   <time name="total">    2.72    2.73</time>
   <energy>
    <i name="e_fr_energy">    -43.60589953 </i>
    <i name="e_wo_entrp">    -43.60589953 </i>
    <i name="e_0_energy">    -43.60589953 </i>
   </energy>
  </scstep>
  <scstep>
   <time name="diag">    1.77    1.77</time>
   <time name="diis">    0.53    0.53</time>
   <time name="orth">    0.10    0.10</time>
   <time name="total">    2.63    2.63</time>
   <energy>
    <i name="e_fr_energy">    -43.60599759 </i>
    <i name="e_wo_entrp">    -43.60599759 </i>
    <i name="e_0_energy">    -43.60599759 </i>
   </energy>
  </scstep>
  <scstep>
   <time name="diag">    1.77    1.77</time>
   <time name="diis">    0.48    0.48</time>
   <time name="orth">    0.10    0.10</time>
   <time name="total">    2.58    2.58</time>
   <energy>
    <i name="e_fr_energy">    -43.60595310 </i>
    <i name="e_wo_entrp">    -43.60595310 </i>
    <i name="e_0_energy">    -43.60595310 </i>
   </energy>
  </scstep>
  <scstep>
   <time name="diag">    1.78    1.77</time>
   <time name="diis">    0.42    0.42</time>
   <time name="orth">    0.10    0.10</time>
   <time name="total">    2.39    2.40</time>
   <energy>
    <i name="alphaZ">     90.42794078 </i>
    <i name="ewald">  -1146.88908035 </i>
    <i name="hartreedc">   -542.95994023 </i>
    <i name="XCdc">    -70.38579531 </i>
    <i name="pawpsdc">   3177.63615756 </i>
    <i name="pawaedc">  -3026.01631980 </i>
    <i name="eentropy">     -0.00000000 </i>
    <i name="bandstr">    -67.74161370 </i>
    <i name="atom">   1542.32269226 </i>
    <i name="e_fr_energy">    -43.60595879 </i>
    <i name="e_wo_entrp">    -43.60595879 </i>
    <i name="e_0_energy">    -43.60595879 </i>
   </energy>
  </scstep>
  <structure>
   <crystal>
    <varray name="basis" >
     <v>       3.19031600       0.00000000       0.00000000 </v>
     <v>      -1.59515800       2.76289400       0.00000000 </v>
     <v>       0.00000000       0.00000000      14.87900400 </v>
    </varray>
    <i name="volume">    131.15105418 </i>
    <varray name="rec_basis" >
     <v>       0.31344857       0.18096966       0.00000000 </v>
     <v>       0.00000000       0.36193933       0.00000000 </v>
     <v>       0.00000000       0.00000000       0.06720880 </v>
    </varray>
   </crystal>
   <varray name="positions" >
    <v>       0.66666700       0.33333300       0.25000000 </v>
    <v>       0.33333300       0.66666700       0.75000000 </v>
    <v>       0.33333300       0.66666700       0.14482600 </v>
    <v>       0.66666700       0.33333300       0.64482600 </v>
    <v>       0.33333300       0.66666700       0.35517400 </v>
    <v>       0.66666700       0.33333300       0.85517400 </v>
   </varray>
  </structure>
  <varray name="forces" >
   <v>       0.00000000       0.00000000       0.00000000 </v>
   <v>       0.00000000       0.00000000       0.00000000 </v>
   <v>       0.00000000      -0.00000000       0.06815521 </v>
   <v>      -0.00000000       0.00000000       0.06815521 </v>
   <v>       0.00000000      -0.00000000      -0.06815521 </v>
   <v>      -0.00000000       0.00000000      -0.06815521 </v>
  </varray>
  <varray name="stress" >
   <v>      -6.81655775      -0.00000000       0.00000000 </v>
   <v>       0.00000000      -6.81655429      -0.00000000 </v>
   <v>      -0.00000000       0.00000000      -5.54627489 </v>
  </varray>
  <energy>
   <i name="e_fr_energy">    -43.60595879 </i>
   <i name="e_wo_entrp">    -43.60595879 </i>
   <i name="e_0_energy">     -0.00000000 </i>
  </energy>
  <time name="totalsc">   47.71   47.95</time>
 </calculation>
 <calculation>
  <scstep>
   <time name="dav">    4.82    4.82</time>
   <time name="total">    5.05    5.05</time>
   <energy>
    <i name="alphaZ">     91.57914336 </i>
    <i name="ewald">  -1147.84510740 </i>
    <i name="hartreedc">   -548.72695526 </i>
    <i name="XCdc">    -70.09124092 </i>
    <i name="pawpsdc">   3177.00717860 </i>
    <i name="pawaedc">  -3025.38634546 </i>
    <i name="eentropy">     -0.00000000 </i>
    <i name="bandstr">    -62.47542808 </i>
    <i name="atom">   1542.32269226 </i>
    <i name="e_fr_energy">    -43.61606291 </i>
    <i name="e_wo_entrp">    -43.61606291 </i>
    <i name="e_0_energy">    -43.61606291 </i>
   </energy>
  </scstep>
  <scstep>
   <time name="diag">    1.86    1.88</time>
   <time name="diis">    0.59    0.66</time>
   <time name="orth">    0.11    0.12</time>
   <time name="total">    2.80    2.89</time>
   <energy>
    <i name="e_fr_energy">    -43.60599052 </i>
    <i name="e_wo_entrp">    -43.60599052 </i>
    <i name="e_0_energy">    -43.60599052 </i>
   </energy>
  </scstep>
  <scstep>
   <time name="diag">    1.84    1.84</time>
   <time name="diis">    0.54    0.54</time>
   <time name="orth">    0.10    0.10</time>
   <time name="total">    2.72    2.72</time>
   <energy>
    <i name="e_fr_energy">    -43.60285190 </i>
    <i name="e_wo_entrp">    -43.60285190 </i>
    <i name="e_0_energy">    -43.60285190 </i>
   </energy>
  </scstep>
  <scstep>
   <time name="diag">    1.95    1.95</time>
   <time name="diis">    0.53    0.53</time>
   <time name="orth">    0.12    0.12</time>
   <time name="total">    2.82    2.82</time>
   <energy>
    <i name="e_fr_energy">    -43.60265596 </i>
    <i name="e_wo_entrp">    -43.60265596 </i>
    <i name="e_0_energy">    -43.60265596 </i>
   </energy>
  </scstep>
  <scstep>
   <time name="diag">    1.79    1.79</time>
   <time name="diis">    0.39    0.39</time>
   <time name="orth">    0.10    0.10</time>
   <time name="total">    2.52    2.52</time>
   <energy>
    <i name="e_fr_energy">    -43.60261904 </i>
    <i name="e_wo_entrp">    -43.60261904 </i>
    <i name="e_0_energy">    -43.60261904 </i>
   </energy>
  </scstep>
  <scstep>
   <time name="diag">    1.82    1.82</time>
   <time name="diis">    0.48    0.48</time>
   <time name="orth">    0.12    0.12</time>
   <time name="total">    2.56    2.56</time>
   <energy>
    <i name="alphaZ">     91.57914336 </i>
    <i name="ewald">  -1147.84510740 </i>
    <i name="hartreedc">   -545.84377395 </i>
    <i name="XCdc">    -70.16166214 </i>
    <i name="pawpsdc">   3243.63007130 </i>
    <i name="pawaedc">  -3092.13212671 </i>
    <i name="eentropy">     -0.00000000 </i>
    <i name="bandstr">    -65.15185807 </i>
    <i name="atom">   1542.32269226 </i>
    <i name="e_fr_energy">    -43.60262135 </i>
    <i name="e_wo_entrp">    -43.60262135 </i>
    <i name="e_0_energy">    -43.60262135 </i>
   </energy>
  </scstep>
  <structure>
   <crystal>
    <varray name="basis" >
     <v>       3.17600269      -0.00000000       0.00000000 </v>
     <v>      -1.58800135       2.75049832      -0.00000000 </v>
     <v>      -0.00000000       0.00000000      14.82468942 </v>
    </varray>
    <i name="volume">    129.50240989 </i>
    <varray name="rec_basis" >
     <v>       0.31486119       0.18178524       0.00000000 </v>
     <v>       0.00000000       0.36357048       0.00000000 </v>
     <v>       0.00000000       0.00000000       0.06745504 </v>
    </varray>
   </crystal>
   <varray name="positions" >
    <v>       0.66666700       0.33333300       0.25000000 </v>
    <v>       0.33333300       0.66666700       0.75000000 </v>
    <v>       0.33333300       0.66666700       0.14504698 </v>
    <v>       0.66666700       0.33333300       0.64504698 </v>
    <v>       0.33333300       0.66666700       0.35495302 </v>
    <v>       0.66666700       0.33333300       0.85495302 </v>
   </varray>
  </structure>
  <varray name="forces" >
   <v>      -0.00000000      -0.00000000       0.00000000 </v>
   <v>       0.00000000       0.00000000      -0.00000000 </v>
   <v>      -0.00000000      -0.00000000      -0.19452102 </v>
   <v>       0.00000000       0.00000000      -0.19452102 </v>
   <v>      -0.00000000      -0.00000000       0.19452102 </v>
   <v>       0.00000000       0.00000000       0.19452102 </v>
  </varray>
  <varray name="stress" >
   <v>      10.30545791      -0.00000000       0.00000000 </v>
   <v>       0.00000000      10.30545272      -0.00000000 </v>
   <v>      -0.00000000       0.00000000      14.76883180 </v>
  </varray>
  <energy>
   <i name="e_fr_energy">    -43.60262135 </i>
   <i name="e_wo_entrp">    -43.60262135 </i>
   <i name="e_0_energy">     -0.00000000 </i>
  </energy>
  <time name="totalsc">   21.19   21.28</time>
 </calculation>
 <calculation>
  <scstep>
   <time name="dav">    4.43    4.43</time>
   <time name="total">    4.66    4.66</time>
   <energy>
    <i name="alphaZ">     90.82777989 </i>
    <i name="ewald">  -1147.23270653 </i>
    <i name="hartreedc">   -542.07543525 </i>
    <i name="XCdc">    -70.35454878 </i>
    <i name="pawpsdc">   3245.86458128 </i>
    <i name="pawaedc">  -3094.36492852 </i>
    <i name="eentropy">     -0.00000000 </i>
    <i name="bandstr">    -68.60053676 </i>
    <i name="atom">   1542.32269226 </i>
    <i name="e_fr_energy">    -43.61310242 </i>
    <i name="e_wo_entrp">    -43.61310242 </i>
    <i name="e_0_energy">    -43.61310242 </i>
   </energy>
  </scstep>
  <scstep>
   <time name="diag">    1.78    1.78</time>
   <time name="diis">    0.58    0.58</time>
   <time name="orth">    0.10    0.10</time>
   <time name="total">    2.69    2.69</time>
   <energy>
    <i name="e_fr_energy">    -43.60881935 </i>
    <i name="e_wo_entrp">    -43.60881935 </i>
    <i name="e_0_energy">    -43.60881935 </i>
   </energy>
  </scstep>
  <scstep>
   <time name="diag">    1.78    1.78</time>
   <time name="diis">    0.50    0.50</time>
   <time name="orth">    0.10    0.10</time>
   <time name="total">    2.61    2.61</time>
   <energy>
    <i name="e_fr_energy">    -43.60746545 </i>
    <i name="e_wo_entrp">    -43.60746545 </i>
    <i name="e_0_energy">    -43.60746545 </i>
   </energy>
  </scstep>
  <scstep>
   <time name="diag">    1.87    1.87</time>
   <time name="diis">    0.53    0.53</time>
   <time name="orth">    0.10    0.10</time>
   <time name="total">    2.73    2.73</time>
   <energy>
    <i name="e_fr_energy">    -43.60735970 </i>
    <i name="e_wo_entrp">    -43.60735970 </i>
    <i name="e_0_energy">    -43.60735970 </i>
   </energy>
  </scstep>
  <scstep>
   <time name="diag">    1.81    1.81</time>
   <time name="diis">    0.39    0.39</time>
   <time name="orth">    0.10    0.10</time>
   <time name="total">    2.54    2.54</time>
   <energy>
    <i name="e_fr_energy">    -43.60733429 </i>
    <i name="e_wo_entrp">    -43.60733429 </i>
    <i name="e_0_energy">    -43.60733429 </i>
   </energy>
  </scstep>
  <scstep>
   <time name="diag">    1.94    1.96</time>
   <time name="diis">    0.40    0.40</time>
   <time name="orth">    0.10    0.10</time>
   <time name="total">    2.67    2.69</time>
   <energy>
    <i name="e_fr_energy">    -43.60731152 </i>
    <i name="e_wo_entrp">    -43.60731152 </i>
    <i name="e_0_energy">    -43.60731152 </i>
   </energy>
  </scstep>
  <scstep>
   <time name="diag">    1.79    1.79</time>
   <time name="diis">    0.46    0.46</time>
   <time name="orth">    0.15    0.15</time>
   <time name="total">    2.50    2.50</time>
   <energy>
    <i name="alphaZ">     90.82777989 </i>
    <i name="ewald">  -1147.23270653 </i>
    <i name="hartreedc">   -543.94404272 </i>
    <i name="XCdc">    -70.30970877 </i>
    <i name="pawpsdc">   3199.89261318 </i>
    <i name="pawaedc">  -3048.31308969 </i>
    <i name="eentropy">     -0.00000000 </i>
    <i name="bandstr">    -66.85085018 </i>
    <i name="atom">   1542.32269226 </i>
    <i name="e_fr_energy">    -43.60731257 </i>
    <i name="e_wo_entrp">    -43.60731257 </i>
    <i name="e_0_energy">    -43.60731257 </i>
   </energy>
  </scstep>
  <structure>
   <crystal>
    <varray name="basis" >
     <v>       3.18531719      -0.00000000       0.00000000 </v>
     <v>      -1.59265860       2.75856491      -0.00000000 </v>
     <v>      -0.00000000       0.00000000      14.86003508 </v>
    </varray>
    <i name="volume">    130.57370526 </i>
    <varray name="rec_basis" >
     <v>       0.31394048       0.18125366       0.00000000 </v>
     <v>       0.00000000       0.36250733       0.00000000 </v>
     <v>       0.00000000       0.00000000       0.06729459 </v>
    </varray>
   </crystal>
   <varray name="positions" >
    <v>       0.66666700       0.33333300       0.25000000 </v>
    <v>       0.33333300       0.66666700       0.75000000 </v>
    <v>       0.33333300       0.66666700       0.14490265 </v>
    <v>       0.66666700       0.33333300       0.64490265 </v>
    <v>       0.33333300       0.66666700       0.35509735 </v>
    <v>       0.66666700       0.33333300       0.85509735 </v>
   </varray>
  </structure>
  <varray name="forces" >
   <v>      -0.00000000       0.00000000       0.00000000 </v>
   <v>      -0.00000000       0.00000000      -0.00000000 </v>
   <v>       0.00000000      -0.00000000      -0.02046150 </v>
   <v>      -0.00000000      -0.00000000      -0.02046150 </v>
   <v>       0.00000000       0.00000000       0.02046150 </v>
   <v>      -0.00000000       0.00000000       0.02046150 </v>
  </varray>
  <varray name="stress" >
   <v>      -0.86023034       0.00000000       0.00000000 </v>
   <v>       0.00000000      -0.86022990       0.00000000 </v>
   <v>      -0.00000000       0.00000000       1.42065197 </v>
  </varray>
  <energy>
   <i name="e_fr_energy">    -43.60731257 </i>
   <i name="e_wo_entrp">    -43.60731257 </i>
   <i name="e_0_energy">     -0.00000000 </i>
  </energy>
  <time name="totalsc">   22.89   22.92</time>
  <eigenvalues>
   <array>
    <dimension dim="1">band</dimension>
    <dimension dim="2">kpoint</dimension>
    <dimension dim="3">spin</dimension>
    <field>eigene</field>
    <field>occ</field>
    <set>
     <set comment="spin 1">
      <set comment="kpoint 1">
       <r>  -10.9198    1.0000 </r>
       <r>  -10.9008    1.0000 </r>
       <r>   -9.7064    1.0000 </r>
       <r>   -9.6722    1.0000 </r>
       <r>   -2.5117    1.0000 </r>
       <r>   -2.3499    1.0000 </r>
       <r>    0.5403    1.0000 </r>
       <r>    0.5403    1.0000 </r>
       <r>    0.5409    1.0000 </r>
       <r>    0.5409    1.0000 </r>
       <r>    1.1381    1.0000 </r>
       <r>    1.6545    1.0000 </r>
       <r>    1.6545    1.0000 </r>
       <r>    1.6564    1.0000 </r>
       <r>    1.6565    1.0000 </r>
       <r>    1.7098    1.0000 </r>
       <r>    2.9593    1.0000 </r>
       <r>    3.3403    1.0000 </r>
       <r>    5.9266    0.0000 </r>
       <r>    5.9266    0.0000 </r>
       <r>    5.9286    0.0000 </r>
       <r>    5.9286    0.0000 </r>
       <r>    6.1537    0.0000 </r>
       <r>    6.1538    0.0000 </r>
       <r>    6.1636    0.0000 </r>
       <r>    6.1637    0.0000 </r>
       <r>    9.0708    0.0000 </r>
       <r>    9.6157    0.0000 </r>
       <r>   10.2581    0.0000 </r>
       <r>   10.3013    0.0000 </r>
       <r>   12.2438    0.0000 </r>
       <r>   12.2936    0.0000 </r>
      </set>
      <set comment="kpoint 2">
       <r>  -10.8224    1.0000 </r>
       <r>  -10.8035    1.0000 </r>
       <r>   -9.6595    1.0000 </r>
       <r>   -9.6265    1.0000 </r>
       <r>   -2.3970    1.0000 </r>
       <r>   -2.2359    1.0000 </r>
       <r>    0.3166    1.0000 </r>
       <r>    0.3177    1.0000 </r>
       <r>    0.6476    1.0000 </r>
       <r>    0.6485    1.0000 </r>
       <r>    0.7669    1.0000 </r>
       <r>    1.0392    1.0000 </r>
       <r>    1.4921    1.0000 </r>
       <r>    1.4944    1.0000 </r>
       <r>    1.8838    1.0000 </r>
       <r>    2.1547    1.0000 </r>
       <r>    2.9340    1.0000 </r>
       <r>    3.2525    1.0000 </r>
       <r>    5.7763    0.0000 </r>
       <r>    5.8063    0.0000 </r>
       <r>    5.8447    0.0000 </r>
       <r>    5.9393    0.0000 </r>
       <r>    6.0379    0.0000 </r>
       <r>    6.0500    0.0000 </r>
       <r>    6.0985    0.0000 </r>
       <r>    6.1037    0.0000 </r>
       <r>    9.4281    0.0000 </r>
       <r>   10.0908    0.0000 </r>
       <r>   10.3645    0.0000 </r>
       <r>   10.5872    0.0000 </r>
       <r>   12.7099    0.0000 </r>
       <r>   12.7704    0.0000 </r>
      </set>
      <set comment="kpoint 3">
       <r>  -10.5442    1.0000 </r>
       <r>  -10.5259    1.0000 </r>
       <r>   -9.5262    1.0000 </r>
       <r>   -9.4964    1.0000 </r>
       <r>   -2.1058    1.0000 </r>
       <r>   -1.9520    1.0000 </r>
       <r>   -0.2029    1.0000 </r>
       <r>   -0.1954    1.0000 </r>
       <r>    0.1801    1.0000 </r>
       <r>    0.3514    1.0000 </r>
       <r>    0.9471    1.0000 </r>
       <r>    0.9488    1.0000 </r>
       <r>    1.1085    1.0000 </r>
       <r>    1.1114    1.0000 </r>
       <r>    1.9615    1.0000 </r>
       <r>    2.2355    1.0000 </r>
       <r>    2.7729    1.0000 </r>
       <r>    2.9354    1.0000 </r>
       <r>    5.3350    0.0000 </r>
       <r>    5.6020    0.0000 </r>
       <r>    5.6685    0.0000 </r>
       <r>    5.7672    0.0000 </r>
       <r>    5.7822    0.0000 </r>
       <r>    5.7986    0.0000 </r>
       <r>    6.4927    0.0000 </r>
       <r>    6.5042    0.0000 </r>
       <r>    9.9498    0.0000 </r>
       <r>   10.6271    0.0000 </r>
       <r>   11.1293    0.0000 </r>
       <r>   11.4883    0.0000 </r>
       <r>   13.0456    0.0000 </r>
       <r>   13.2045    0.0000 </r>
      </set>
      <set comment="kpoint 4">
       <r>  -10.1297    1.0000 </r>
       <r>  -10.1130    1.0000 </r>
       <r>   -9.3298    1.0000 </r>
       <r>   -9.3053    1.0000 </r>
       <r>   -1.8770    1.0000 </r>
       <r>   -1.7664    1.0000 </r>
       <r>   -0.6676    1.0000 </r>
       <r>   -0.6234    1.0000 </r>
       <r>   -0.4417    1.0000 </r>
       <r>   -0.3398    1.0000 </r>
       <r>    0.6771    1.0000 </r>
       <r>    0.6805    1.0000 </r>
       <r>    1.3682    1.0000 </r>
       <r>    1.3717    1.0000 </r>
       <r>    1.7419    1.0000 </r>
       <r>    1.9525    1.0000 </r>
       <r>    2.4041    1.0000 </r>
       <r>    2.4535    1.0000 </r>
       <r>    5.1685    0.0000 </r>
       <r>    5.4922    0.0000 </r>
       <r>    5.4931    0.0000 </r>
       <r>    5.5083    0.0000 </r>
       <r>    5.9376    0.0000 </r>
       <r>    6.1776    0.0000 </r>
       <r>    6.8987    0.0000 </r>
       <r>    6.9189    0.0000 </r>
       <r>   10.2609    0.0000 </r>
       <r>   10.8877    0.0000 </r>
       <r>   11.6010    0.0000 </r>
       <r>   12.1039    0.0000 </r>
       <r>   12.4312    0.0000 </r>
       <r>   12.6432    0.0000 </r>
      </set>
      <set comment="kpoint 5">
       <r>   -9.6618    1.0000 </r>
       <r>   -9.6479    1.0000 </r>
       <r>   -9.1129    1.0000 </r>
       <r>   -9.0950    1.0000 </r>
       <r>   -2.0841    1.0000 </r>
       <r>   -2.0369    1.0000 </r>
       <r>   -1.0326    1.0000 </r>
       <r>   -0.9750    1.0000 </r>
       <r>   -0.7871    1.0000 </r>
       <r>   -0.7011    1.0000 </r>
       <r>    0.3133    1.0000 </r>
       <r>    0.3171    1.0000 </r>
       <r>    1.4737    1.0000 </r>
       <r>    1.6161    1.0000 </r>
       <r>    1.7920    1.0000 </r>
       <r>    1.7986    1.0000 </r>
       <r>    2.1611    1.0000 </r>
       <r>    2.2072    1.0000 </r>
       <r>    5.3355    0.0000 </r>
       <r>    5.3473    0.0000 </r>
       <r>    5.3547    0.0000 </r>
       <r>    5.5974    0.0000 </r>
       <r>    6.4121    0.0000 </r>
       <r>    6.6970    0.0000 </r>
       <r>    7.1927    0.0000 </r>
       <r>    7.2226    0.0000 </r>
       <r>   10.3770    0.0000 </r>
       <r>   10.9326    0.0000 </r>
       <r>   10.9457    0.0000 </r>
       <r>   11.1734    0.0000 </r>
       <r>   11.5905    0.0000 </r>
       <r>   12.2162    0.0000 </r>
      </set>
      <set comment="kpoint 6">
       <r>   -9.2704    1.0000 </r>
       <r>   -9.2608    1.0000 </r>
       <r>   -8.9373    1.0000 </r>
       <r>   -8.9265    1.0000 </r>
       <r>   -2.4454    1.0000 </r>
       <r>   -2.4159    1.0000 </r>
       <r>   -1.4723    1.0000 </r>
       <r>   -1.4391    1.0000 </r>
       <r>   -0.8789    1.0000 </r>
       <r>   -0.7984    1.0000 </r>
       <r>    0.0767    1.0000 </r>
       <r>    0.0808    1.0000 </r>
       <r>    1.3163    1.0000 </r>
       <r>    1.3906    1.0000 </r>
       <r>    2.0888    1.0000 </r>
       <r>    2.0992    1.0000 </r>
       <r>    2.3272    1.0000 </r>
       <r>    2.3735    1.0000 </r>
       <r>    5.3174    0.0000 </r>
       <r>    5.3239    0.0000 </r>
       <r>    5.6619    0.0000 </r>
       <r>    5.7822    0.0000 </r>
       <r>    6.7995    0.0000 </r>
       <r>    7.0734    0.0000 </r>
       <r>    7.3527    0.0000 </r>
       <r>    7.3901    0.0000 </r>
       <r>    9.7153    0.0000 </r>
       <r>    9.8652    0.0000 </r>
       <r>   10.9400    0.0000 </r>
       <r>   11.0572    0.0000 </r>
       <r>   11.1882    0.0000 </r>
       <r>   12.0388    0.0000 </r>
      </set>
      <set comment="kpoint 7">
       <r>   -9.1128    1.0000 </r>
       <r>   -9.1062    1.0000 </r>
       <r>   -8.8681    1.0000 </r>
       <r>   -8.8616    1.0000 </r>
       <r>   -2.6024    1.0000 </r>
       <r>   -2.5754    1.0000 </r>
       <r>   -1.6359    1.0000 </r>
       <r>   -1.6113    1.0000 </r>
       <r>   -0.9497    1.0000 </r>
       <r>   -0.8736    1.0000 </r>
       <r>   -0.0048    1.0000 </r>
       <r>   -0.0007    1.0000 </r>
       <r>    1.2823    1.0000 </r>
       <r>    1.3018    1.0000 </r>
       <r>    2.1906    1.0000 </r>
       <r>    2.2027    1.0000 </r>
       <r>    2.5122    1.0000 </r>
       <r>    2.5160    1.0000 </r>
       <r>    5.3384    0.0000 </r>
       <r>    5.3422    0.0000 </r>
       <r>    5.8315    0.0000 </r>
       <r>    5.8871    0.0000 </r>
       <r>    6.9368    0.0000 </r>
       <r>    7.1968    0.0000 </r>
       <r>    7.4014    0.0000 </r>
       <r>    7.4416    0.0000 </r>
       <r>    9.2565    0.0000 </r>
       <r>    9.3359    0.0000 </r>
       <r>   10.9866    0.0000 </r>
       <r>   11.2230    0.0000 </r>
       <r>   11.3156    0.0000 </r>
       <r>   11.7569    0.0000 </r>
      </set>
      <set comment="kpoint 8">
       <r>  -10.6344    1.0000 </r>
       <r>  -10.6159    1.0000 </r>
       <r>   -9.5693    1.0000 </r>
       <r>   -9.5384    1.0000 </r>
       <r>   -2.1909    1.0000 </r>
       <r>   -2.0333    1.0000 </r>
       <r>   -0.0463    1.0000 </r>
       <r>   -0.0448    1.0000 </r>
       <r>    0.3784    1.0000 </r>
       <r>    0.5854    1.0000 </r>
       <r>    0.8429    1.0000 </r>
       <r>    0.8440    1.0000 </r>
       <r>    1.1132    1.0000 </r>
       <r>    1.1205    1.0000 </r>
       <r>    2.0651    1.0000 </r>
       <r>    2.3354    1.0000 </r>
       <r>    2.8409    1.0000 </r>
       <r>    3.0484    1.0000 </r>
       <r>    5.4533    0.0000 </r>
       <r>    5.6055    0.0000 </r>
       <r>    5.6721    0.0000 </r>
       <r>    5.6889    0.0000 </r>
       <r>    5.8306    0.0000 </r>
       <r>    5.8552    0.0000 </r>
       <r>    6.4166    0.0000 </r>
       <r>    6.4383    0.0000 </r>
       <r>    9.8593    0.0000 </r>
       <r>   10.5519    0.0000 </r>
       <r>   10.8773    0.0000 </r>
       <r>   11.1975    0.0000 </r>
       <r>   13.2692    0.0000 </r>
       <r>   13.3768    0.0000 </r>
      </set>
      <set comment="kpoint 9">
       <r>  -10.2871    1.0000 </r>
       <r>  -10.2697    1.0000 </r>
       <r>   -9.4034    1.0000 </r>
       <r>   -9.3768    1.0000 </r>
       <r>   -1.9035    1.0000 </r>
       <r>   -1.7671    1.0000 </r>
       <r>   -0.5197    1.0000 </r>
       <r>   -0.5014    1.0000 </r>
       <r>   -0.1237    1.0000 </r>
       <r>    0.0055    1.0000 </r>
       <r>    0.5647    1.0000 </r>
       <r>    0.5905    1.0000 </r>
       <r>    1.1554    1.0000 </r>
       <r>    1.1576    1.0000 </r>
       <r>    2.0582    1.0000 </r>
       <r>    2.2645    1.0000 </r>
       <r>    2.5645    1.0000 </r>
       <r>    2.6374    1.0000 </r>
       <r>    5.1213    0.0000 </r>
       <r>    5.3901    0.0000 </r>
       <r>    5.5870    0.0000 </r>
       <r>    5.6361    0.0000 </r>
       <r>    5.6699    0.0000 </r>
       <r>    5.8039    0.0000 </r>
       <r>    6.8529    0.0000 </r>
       <r>    6.9096    0.0000 </r>
       <r>   10.2727    0.0000 </r>
       <r>   10.8406    0.0000 </r>
       <r>   11.8518    0.0000 </r>
       <r>   12.1984    0.0000 </r>
       <r>   12.8430    0.0000 </r>
       <r>   12.8892    0.0000 </r>
      </set>
      <set comment="kpoint 10">
       <r>   -9.8425    1.0000 </r>
       <r>   -9.8272    1.0000 </r>
       <r>   -9.1937    1.0000 </r>
       <r>   -9.1730    1.0000 </r>
       <r>   -1.8943    1.0000 </r>
       <r>   -1.8246    1.0000 </r>
       <r>   -0.7431    1.0000 </r>
       <r>   -0.7288    1.0000 </r>
       <r>   -0.6828    1.0000 </r>
       <r>   -0.6580    1.0000 </r>
       <r>    0.1966    1.0000 </r>
       <r>    0.2405    1.0000 </r>
       <r>    1.4092    1.0000 </r>
       <r>    1.4113    1.0000 </r>
       <r>    1.7975    1.0000 </r>
       <r>    1.9294    1.0000 </r>
       <r>    2.2926    1.0000 </r>
       <r>    2.3162    1.0000 </r>
       <r>    5.0774    0.0000 </r>
       <r>    5.2782    0.0000 </r>
       <r>    5.5054    0.0000 </r>
       <r>    5.6299    0.0000 </r>
       <r>    6.0035    0.0000 </r>
       <r>    6.2259    0.0000 </r>
       <r>    7.1914    0.0000 </r>
       <r>    7.2845    0.0000 </r>
       <r>   10.5303    0.0000 </r>
       <r>   11.0562    0.0000 </r>
       <r>   11.5662    0.0000 </r>
       <r>   11.8147    0.0000 </r>
       <r>   12.2337    0.0000 </r>
       <r>   12.6153    0.0000 </r>
      </set>
      <set comment="kpoint 11">
       <r>   -9.4049    1.0000 </r>
       <r>   -9.3933    1.0000 </r>
       <r>   -8.9919    1.0000 </r>
       <r>   -8.9780    1.0000 </r>
       <r>   -2.2124    1.0000 </r>
       <r>   -2.1780    1.0000 </r>
       <r>   -1.3221    1.0000 </r>
       <r>   -1.2926    1.0000 </r>
       <r>   -0.7717    1.0000 </r>
       <r>   -0.6909    1.0000 </r>
       <r>    0.0328    1.0000 </r>
       <r>    0.0665    1.0000 </r>
       <r>    1.4956    1.0000 </r>
       <r>    1.5302    1.0000 </r>
       <r>    1.5428    1.0000 </r>
       <r>    1.5721    1.0000 </r>
       <r>    2.3995    1.0000 </r>
       <r>    2.4195    1.0000 </r>
       <r>    5.2428    0.0000 </r>
       <r>    5.3490    0.0000 </r>
       <r>    5.6058    0.0000 </r>
       <r>    5.7006    0.0000 </r>
       <r>    6.4903    0.0000 </r>
       <r>    6.7047    0.0000 </r>
       <r>    7.3263    0.0000 </r>
       <r>    7.4541    0.0000 </r>
       <r>   10.2852    0.0000 </r>
       <r>   10.4769    0.0000 </r>
       <r>   11.1458    0.0000 </r>
       <r>   11.2299    0.0000 </r>
       <r>   11.7094    0.0000 </r>
       <r>   12.3849    0.0000 </r>
      </set>
      <set comment="kpoint 12">
       <r>   -9.1208    1.0000 </r>
       <r>   -9.1136    1.0000 </r>
       <r>   -8.8639    1.0000 </r>
       <r>   -8.8564    1.0000 </r>
       <r>   -2.4654    1.0000 </r>
       <r>   -2.4385    1.0000 </r>
       <r>   -1.6629    1.0000 </r>
       <r>   -1.6465    1.0000 </r>
       <r>   -0.8916    1.0000 </r>
       <r>   -0.8173    1.0000 </r>
       <r>   -0.0186    1.0000 </r>
       <r>    0.0005    1.0000 </r>
       <r>    1.3136    1.0000 </r>
       <r>    1.3512    1.0000 </r>
       <r>    1.6597    1.0000 </r>
       <r>    1.6717    1.0000 </r>
       <r>    2.6408    1.0000 </r>
       <r>    2.6589    1.0000 </r>
       <r>    5.3467    0.0000 </r>
       <r>    5.3764    0.0000 </r>
       <r>    5.8223    0.0000 </r>
       <r>    5.8954    0.0000 </r>
       <r>    6.9086    0.0000 </r>
       <r>    7.0637    0.0000 </r>
       <r>    7.2405    0.0000 </r>
       <r>    7.3998    0.0000 </r>
       <r>    9.5207    0.0000 </r>
       <r>    9.5804    0.0000 </r>
       <r>   11.4095    0.0000 </r>
       <r>   11.5716    0.0000 </r>
       <r>   11.6006    0.0000 </r>
       <r>   12.0371    0.0000 </r>
      </set>
      <set comment="kpoint 13">
       <r>   -9.9070    1.0000 </r>
       <r>   -9.8913    1.0000 </r>
       <r>   -9.2218    1.0000 </r>
       <r>   -9.2001    1.0000 </r>
       <r>   -1.8036    1.0000 </r>
       <r>   -1.7189    1.0000 </r>
       <r>   -0.6764    1.0000 </r>
       <r>   -0.6245    1.0000 </r>
       <r>   -0.5106    1.0000 </r>
       <r>   -0.4666    1.0000 </r>
       <r>   -0.0612    1.0000 </r>
       <r>    0.0339    1.0000 </r>
       <r>    1.1916    1.0000 </r>
       <r>    1.1923    1.0000 </r>
       <r>    2.0566    1.0000 </r>
       <r>    2.1740    1.0000 </r>
       <r>    2.3562    1.0000 </r>
       <r>    2.3698    1.0000 </r>
       <r>    4.9584    0.0000 </r>
       <r>    5.2013    0.0000 </r>
       <r>    5.5592    0.0000 </r>
       <r>    5.6799    0.0000 </r>
       <r>    5.7203    0.0000 </r>
       <r>    5.9179    0.0000 </r>
       <r>    7.2393    0.0000 </r>
       <r>    7.3642    0.0000 </r>
       <r>   10.6611    0.0000 </r>
       <r>   11.1353    0.0000 </r>
       <r>   12.0910    0.0000 </r>
       <r>   12.1667    0.0000 </r>
       <r>   12.8449    0.0000 </r>
       <r>   13.1431    0.0000 </r>
      </set>
      <set comment="kpoint 14">
       <r>   -9.4836    1.0000 </r>
       <r>   -9.4710    1.0000 </r>
       <r>   -9.0201    1.0000 </r>
       <r>   -9.0044    1.0000 </r>
       <r>   -1.9647    1.0000 </r>
       <r>   -1.9231    1.0000 </r>
       <r>   -1.1903    1.0000 </r>
       <r>   -1.1763    1.0000 </r>
       <r>   -0.5979    1.0000 </r>
       <r>   -0.5312    1.0000 </r>
       <r>   -0.1667    1.0000 </r>
       <r>   -0.0737    1.0000 </r>
       <r>    0.9230    1.0000 </r>
       <r>    0.9324    1.0000 </r>
       <r>    1.7875    1.0000 </r>
       <r>    1.8356    1.0000 </r>
       <r>    2.4096    1.0000 </r>
       <r>    2.4108    1.0000 </r>
       <r>    5.1016    0.0000 </r>
       <r>    5.3514    0.0000 </r>
       <r>    5.6507    0.0000 </r>
       <r>    5.6829    0.0000 </r>
       <r>    6.0405    0.0000 </r>
       <r>    6.2373    0.0000 </r>
       <r>    7.4464    0.0000 </r>
       <r>    7.6233    0.0000 </r>
       <r>   10.7885    0.0000 </r>
       <r>   11.2289    0.0000 </r>
       <r>   11.4156    0.0000 </r>
       <r>   11.6204    0.0000 </r>
       <r>   12.5271    0.0000 </r>
       <r>   12.9300    0.0000 </r>
      </set>
      <set comment="kpoint 15">
       <r>   -9.1365    1.0000 </r>
       <r>   -9.1283    1.0000 </r>
       <r>   -8.8555    1.0000 </r>
       <r>   -8.8463    1.0000 </r>
       <r>   -2.1461    1.0000 </r>
       <r>   -2.1188    1.0000 </r>
       <r>   -1.7145    1.0000 </r>
       <r>   -1.7084    1.0000 </r>
       <r>   -0.7054    1.0000 </r>
       <r>   -0.6426    1.0000 </r>
       <r>   -0.0772    1.0000 </r>
       <r>   -0.0112    1.0000 </r>
       <r>    0.7930    1.0000 </r>
       <r>    0.8143    1.0000 </r>
       <r>    1.4316    1.0000 </r>
       <r>    1.4627    1.0000 </r>
       <r>    2.6527    1.0000 </r>
       <r>    2.6683    1.0000 </r>
       <r>    5.2849    0.0000 </r>
       <r>    5.3840    0.0000 </r>
       <r>    5.8591    0.0000 </r>
       <r>    5.9358    0.0000 </r>
       <r>    6.3956    0.0000 </r>
       <r>    6.5554    0.0000 </r>
       <r>    7.4718    0.0000 </r>
       <r>    7.6825    0.0000 </r>
       <r>   10.1462    0.0000 </r>
       <r>   10.1923    0.0000 </r>
       <r>   11.7290    0.0000 </r>
       <r>   11.7549    0.0000 </r>
       <r>   12.4973    0.0000 </r>
       <r>   12.7003    0.0000 </r>
      </set>
      <set comment="kpoint 16">
       <r>   -8.9990    1.0000 </r>
       <r>   -8.9939    1.0000 </r>
       <r>   -8.7903    1.0000 </r>
       <r>   -8.7852    1.0000 </r>
       <r>   -2.2119    1.0000 </r>
       <r>   -2.1880    1.0000 </r>
       <r>   -1.9046    1.0000 </r>
       <r>   -1.9026    1.0000 </r>
       <r>   -0.8280    1.0000 </r>
       <r>   -0.7645    1.0000 </r>
       <r>   -0.0009    1.0000 </r>
       <r>    0.0464    1.0000 </r>
       <r>    0.7974    1.0000 </r>
       <r>    0.8165    1.0000 </r>
       <r>    1.2526    1.0000 </r>
       <r>    1.2957    1.0000 </r>
       <r>    2.8253    1.0000 </r>
       <r>    2.8476    1.0000 </r>
       <r>    5.2361    0.0000 </r>
       <r>    5.2602    0.0000 </r>
       <r>    6.1263    0.0000 </r>
       <r>    6.1557    0.0000 </r>
       <r>    6.5592    0.0000 </r>
       <r>    6.6881    0.0000 </r>
       <r>    7.4396    0.0000 </r>
       <r>    7.6652    0.0000 </r>
       <r>    9.6842    0.0000 </r>
       <r>    9.7380    0.0000 </r>
       <r>   12.0416    0.0000 </r>
       <r>   12.1190    0.0000 </r>
       <r>   12.6692    0.0000 </r>
       <r>   12.6733    0.0000 </r>
      </set>
      <set comment="kpoint 17">
       <r>   -9.1443    1.0000 </r>
       <r>   -9.1356    1.0000 </r>
       <r>   -8.8512    1.0000 </r>
       <r>   -8.8413    1.0000 </r>
       <r>   -1.9554    1.0000 </r>
       <r>   -1.9267    1.0000 </r>
       <r>   -1.7430    1.0000 </r>
       <r>   -1.7318    1.0000 </r>
       <r>   -0.4593    1.0000 </r>
       <r>   -0.4349    1.0000 </r>
       <r>   -0.1148    1.0000 </r>
       <r>   -0.0262    1.0000 </r>
       <r>    0.2381    1.0000 </r>
       <r>    0.2608    1.0000 </r>
       <r>    1.5149    1.0000 </r>
       <r>    1.5254    1.0000 </r>
       <r>    2.6344    1.0000 </r>
       <r>    2.6442    1.0000 </r>
       <r>    5.2373    0.0000 </r>
       <r>    5.3670    0.0000 </r>
       <r>    5.8863    0.0000 </r>
       <r>    5.9658    0.0000 </r>
       <r>    6.1422    0.0000 </r>
       <r>    6.3189    0.0000 </r>
       <r>    7.6251    0.0000 </r>
       <r>    7.8249    0.0000 </r>
       <r>   10.5989    0.0000 </r>
       <r>   10.7903    0.0000 </r>
       <r>   11.3333    0.0000 </r>
       <r>   11.8729    0.0000 </r>
       <r>   12.1689    0.0000 </r>
       <r>   12.7485    0.0000 </r>
      </set>
      <set comment="kpoint 18">
       <r>   -8.9333    1.0000 </r>
       <r>   -8.9290    1.0000 </r>
       <r>   -8.7432    1.0000 </r>
       <r>   -8.7386    1.0000 </r>
       <r>   -2.0846    1.0000 </r>
       <r>   -2.0738    1.0000 </r>
       <r>   -1.8170    1.0000 </r>
       <r>   -1.7975    1.0000 </r>
       <r>   -0.6782    1.0000 </r>
       <r>   -0.6420    1.0000 </r>
       <r>   -0.0704    1.0000 </r>
       <r>   -0.0412    1.0000 </r>
       <r>    0.0873    1.0000 </r>
       <r>    0.1487    1.0000 </r>
       <r>    1.1737    1.0000 </r>
       <r>    1.2110    1.0000 </r>
       <r>    2.9371    1.0000 </r>
       <r>    2.9569    1.0000 </r>
       <r>    5.0288    0.0000 </r>
       <r>    5.0499    0.0000 </r>
       <r>    6.1963    0.0000 </r>
       <r>    6.3561    0.0000 </r>
       <r>    6.3672    0.0000 </r>
       <r>    6.4257    0.0000 </r>
       <r>    7.7723    0.0000 </r>
       <r>    7.9277    0.0000 </r>
       <r>   10.0849    0.0000 </r>
       <r>   10.2779    0.0000 </r>
       <r>   11.2407    0.0000 </r>
       <r>   11.6256    0.0000 </r>
       <r>   12.3528    0.0000 </r>
       <r>   12.8349    0.0000 </r>
      </set>
      <set comment="kpoint 19">
       <r>   -8.8565    1.0000 </r>
       <r>   -8.8565    1.0000 </r>
       <r>   -8.6976    1.0000 </r>
       <r>   -8.6976    1.0000 </r>
       <r>   -2.2298    1.0000 </r>
       <r>   -2.2172    1.0000 </r>
       <r>   -1.4038    1.0000 </r>
       <r>   -1.4038    1.0000 </r>
       <r>   -0.9214    1.0000 </r>
       <r>   -0.8987    1.0000 </r>
       <r>   -0.4112    1.0000 </r>
       <r>   -0.4112    1.0000 </r>
       <r>    0.2701    1.0000 </r>
       <r>    0.2701    1.0000 </r>
       <r>    1.0086    1.0000 </r>
       <r>    1.0086    1.0000 </r>
       <r>    3.1256    1.0000 </r>
       <r>    3.1453    1.0000 </r>
       <r>    4.8062    0.0000 </r>
       <r>    4.8062    0.0000 </r>
       <r>    6.0987    0.0000 </r>
       <r>    6.2821    0.0000 </r>
       <r>    6.6485    0.0000 </r>
       <r>    6.6485    0.0000 </r>
       <r>    7.9896    0.0000 </r>
       <r>    7.9896    0.0000 </r>
       <r>   10.1076    0.0000 </r>
       <r>   10.7166    0.0000 </r>
       <r>   10.7922    0.0000 </r>
       <r>   10.7922    0.0000 </r>
       <r>   12.8263    0.0000 </r>
       <r>   12.8263    0.0000 </r>
      </set>
      <set comment="kpoint 20">
       <r>  -10.9195    1.0000 </r>
       <r>  -10.9011    1.0000 </r>
       <r>   -9.7059    1.0000 </r>
       <r>   -9.6728    1.0000 </r>
       <r>   -2.5091    1.0000 </r>
       <r>   -2.3528    1.0000 </r>
       <r>    0.5403    1.0000 </r>
       <r>    0.5403    1.0000 </r>
       <r>    0.5408    1.0000 </r>
       <r>    0.5409    1.0000 </r>
       <r>    1.1464    1.0000 </r>
       <r>    1.6545    1.0000 </r>
       <r>    1.6546    1.0000 </r>
       <r>    1.6564    1.0000 </r>
       <r>    1.6564    1.0000 </r>
       <r>    1.6974    1.0000 </r>
       <r>    2.9686    1.0000 </r>
       <r>    3.3355    1.0000 </r>
       <r>    5.9266    0.0000 </r>
       <r>    5.9267    0.0000 </r>
       <r>    5.9285    0.0000 </r>
       <r>    5.9286    0.0000 </r>
       <r>    6.1539    0.0000 </r>
       <r>    6.1539    0.0000 </r>
       <r>    6.1635    0.0000 </r>
       <r>    6.1635    0.0000 </r>
       <r>    9.0787    0.0000 </r>
       <r>    9.6043    0.0000 </r>
       <r>   10.2596    0.0000 </r>
       <r>   10.3009    0.0000 </r>
       <r>   12.2446    0.0000 </r>
       <r>   12.2927    0.0000 </r>
      </set>
      <set comment="kpoint 21">
       <r>  -10.8221    1.0000 </r>
       <r>  -10.8038    1.0000 </r>
       <r>   -9.6590    1.0000 </r>
       <r>   -9.6270    1.0000 </r>
       <r>   -2.3944    1.0000 </r>
       <r>   -2.2389    1.0000 </r>
       <r>    0.3167    1.0000 </r>
       <r>    0.3177    1.0000 </r>
       <r>    0.6476    1.0000 </r>
       <r>    0.6484    1.0000 </r>
       <r>    0.7721    1.0000 </r>
       <r>    1.0352    1.0000 </r>
       <r>    1.4922    1.0000 </r>
       <r>    1.4943    1.0000 </r>
       <r>    1.8865    1.0000 </r>
       <r>    2.1467    1.0000 </r>
       <r>    2.9423    1.0000 </r>
       <r>    3.2487    1.0000 </r>
       <r>    5.7766    0.0000 </r>
       <r>    5.8046    0.0000 </r>
       <r>    5.8475    0.0000 </r>
       <r>    5.9381    0.0000 </r>
       <r>    6.0381    0.0000 </r>
       <r>    6.0498    0.0000 </r>
       <r>    6.0986    0.0000 </r>
       <r>    6.1036    0.0000 </r>
       <r>    9.4359    0.0000 </r>
       <r>   10.0678    0.0000 </r>
       <r>   10.3788    0.0000 </r>
       <r>   10.5858    0.0000 </r>
       <r>   12.7109    0.0000 </r>
       <r>   12.7694    0.0000 </r>
      </set>
      <set comment="kpoint 22">
       <r>  -10.5439    1.0000 </r>
       <r>  -10.5262    1.0000 </r>
       <r>   -9.5256    1.0000 </r>
       <r>   -9.4969    1.0000 </r>
       <r>   -2.1034    1.0000 </r>
       <r>   -1.9548    1.0000 </r>
       <r>   -0.2028    1.0000 </r>
       <r>   -0.1956    1.0000 </r>
       <r>    0.1834    1.0000 </r>
       <r>    0.3489    1.0000 </r>
       <r>    0.9471    1.0000 </r>
       <r>    0.9488    1.0000 </r>
       <r>    1.1085    1.0000 </r>
       <r>    1.1113    1.0000 </r>
       <r>    1.9650    1.0000 </r>
       <r>    2.2287    1.0000 </r>
       <r>    2.7775    1.0000 </r>
       <r>    2.9336    1.0000 </r>
       <r>    5.3385    0.0000 </r>
       <r>    5.5910    0.0000 </r>
       <r>    5.6773    0.0000 </r>
       <r>    5.7674    0.0000 </r>
       <r>    5.7820    0.0000 </r>
       <r>    5.7976    0.0000 </r>
       <r>    6.4929    0.0000 </r>
       <r>    6.5040    0.0000 </r>
       <r>    9.9576    0.0000 </r>
       <r>   10.6048    0.0000 </r>
       <r>   11.1457    0.0000 </r>
       <r>   11.4854    0.0000 </r>
       <r>   13.0489    0.0000 </r>
       <r>   13.1934    0.0000 </r>
      </set>
      <set comment="kpoint 23">
       <r>  -10.1295    1.0000 </r>
       <r>  -10.1133    1.0000 </r>
       <r>   -9.3293    1.0000 </r>
       <r>   -9.3057    1.0000 </r>
       <r>   -1.8752    1.0000 </r>
       <r>   -1.7684    1.0000 </r>
       <r>   -0.6671    1.0000 </r>
       <r>   -0.6248    1.0000 </r>
       <r>   -0.4392    1.0000 </r>
       <r>   -0.3411    1.0000 </r>
       <r>    0.6771    1.0000 </r>
       <r>    0.6805    1.0000 </r>
       <r>    1.3682    1.0000 </r>
       <r>    1.3716    1.0000 </r>
       <r>    1.7450    1.0000 </r>
       <r>    1.9483    1.0000 </r>
       <r>    2.4054    1.0000 </r>
       <r>    2.4530    1.0000 </r>
       <r>    5.1731    0.0000 </r>
       <r>    5.4846    0.0000 </r>
       <r>    5.4933    0.0000 </r>
       <r>    5.5080    0.0000 </r>
       <r>    5.9439    0.0000 </r>
       <r>    6.1746    0.0000 </r>
       <r>    6.8990    0.0000 </r>
       <r>    6.9186    0.0000 </r>
       <r>   10.2685    0.0000 </r>
       <r>   10.8694    0.0000 </r>
       <r>   11.6174    0.0000 </r>
       <r>   12.0988    0.0000 </r>
       <r>   12.4317    0.0000 </r>
       <r>   12.6320    0.0000 </r>
      </set>
      <set comment="kpoint 24">
       <r>   -9.6616    1.0000 </r>
       <r>   -9.6481    1.0000 </r>
       <r>   -9.1126    1.0000 </r>
       <r>   -9.0953    1.0000 </r>
       <r>   -2.0833    1.0000 </r>
       <r>   -2.0378    1.0000 </r>
       <r>   -1.0319    1.0000 </r>
       <r>   -0.9765    1.0000 </r>
       <r>   -0.7852    1.0000 </r>
       <r>   -0.7023    1.0000 </r>
       <r>    0.3133    1.0000 </r>
       <r>    0.3170    1.0000 </r>
       <r>    1.4759    1.0000 </r>
       <r>    1.6134    1.0000 </r>
       <r>    1.7921    1.0000 </r>
       <r>    1.7985    1.0000 </r>
       <r>    2.1621    1.0000 </r>
       <r>    2.2065    1.0000 </r>
       <r>    5.3357    0.0000 </r>
       <r>    5.3471    0.0000 </r>
       <r>    5.3582    0.0000 </r>
       <r>    5.5923    0.0000 </r>
       <r>    6.4177    0.0000 </r>
       <r>    6.6925    0.0000 </r>
       <r>    7.1932    0.0000 </r>
       <r>    7.2221    0.0000 </r>
       <r>   10.3846    0.0000 </r>
       <r>   10.9069    0.0000 </r>
       <r>   10.9604    0.0000 </r>
       <r>   11.1778    0.0000 </r>
       <r>   11.5958    0.0000 </r>
       <r>   12.1476    0.0000 </r>
      </set>
      <set comment="kpoint 25">
       <r>   -9.2703    1.0000 </r>
       <r>   -9.2610    1.0000 </r>
       <r>   -8.9371    1.0000 </r>
       <r>   -8.9266    1.0000 </r>
       <r>   -2.4450    1.0000 </r>
       <r>   -2.4164    1.0000 </r>
       <r>   -1.4718    1.0000 </r>
       <r>   -1.4398    1.0000 </r>
       <r>   -0.8775    1.0000 </r>
       <r>   -0.7996    1.0000 </r>
       <r>    0.0768    1.0000 </r>
       <r>    0.0807    1.0000 </r>
       <r>    1.3175    1.0000 </r>
       <r>    1.3893    1.0000 </r>
       <r>    2.0890    1.0000 </r>
       <r>    2.0990    1.0000 </r>
       <r>    2.3281    1.0000 </r>
       <r>    2.3728    1.0000 </r>
       <r>    5.3175    0.0000 </r>
       <r>    5.3238    0.0000 </r>
       <r>    5.6638    0.0000 </r>
       <r>    5.7800    0.0000 </r>
       <r>    6.8040    0.0000 </r>
       <r>    7.0684    0.0000 </r>
       <r>    7.3533    0.0000 </r>
       <r>    7.3894    0.0000 </r>
       <r>    9.7196    0.0000 </r>
       <r>    9.8668    0.0000 </r>
       <r>   10.9156    0.0000 </r>
       <r>   11.0695    0.0000 </r>
       <r>   11.2020    0.0000 </r>
       <r>   11.9458    0.0000 </r>
      </set>
      <set comment="kpoint 26">
       <r>   -9.1126    1.0000 </r>
       <r>   -9.1063    1.0000 </r>
       <r>   -8.8680    1.0000 </r>
       <r>   -8.8617    1.0000 </r>
       <r>   -2.6020    1.0000 </r>
       <r>   -2.5758    1.0000 </r>
       <r>   -1.6355    1.0000 </r>
       <r>   -1.6117    1.0000 </r>
       <r>   -0.9483    1.0000 </r>
       <r>   -0.8749    1.0000 </r>
       <r>   -0.0048    1.0000 </r>
       <r>   -0.0008    1.0000 </r>
       <r>    1.2826    1.0000 </r>
       <r>    1.3015    1.0000 </r>
       <r>    2.1908    1.0000 </r>
       <r>    2.2025    1.0000 </r>
       <r>    2.5122    1.0000 </r>
       <r>    2.5159    1.0000 </r>
       <r>    5.3385    0.0000 </r>
       <r>    5.3421    0.0000 </r>
       <r>    5.8325    0.0000 </r>
       <r>    5.8862    0.0000 </r>
       <r>    6.9406    0.0000 </r>
       <r>    7.1916    0.0000 </r>
       <r>    7.4021    0.0000 </r>
       <r>    7.4409    0.0000 </r>
       <r>    9.2596    0.0000 </r>
       <r>    9.3377    0.0000 </r>
       <r>   10.9793    0.0000 </r>
       <r>   11.2177    0.0000 </r>
       <r>   11.3204    0.0000 </r>
       <r>   11.7818    0.0000 </r>
      </set>
      <set comment="kpoint 27">
       <r>  -10.6341    1.0000 </r>
       <r>  -10.6163    1.0000 </r>
       <r>   -9.5687    1.0000 </r>
       <r>   -9.5389    1.0000 </r>
       <r>   -2.1884    1.0000 </r>
       <r>   -2.0362    1.0000 </r>
       <r>   -0.0463    1.0000 </r>
       <r>   -0.0448    1.0000 </r>
       <r>    0.3824    1.0000 </r>
       <r>    0.5822    1.0000 </r>
       <r>    0.8429    1.0000 </r>
       <r>    0.8440    1.0000 </r>
       <r>    1.1133    1.0000 </r>
       <r>    1.1203    1.0000 </r>
       <r>    2.0683    1.0000 </r>
       <r>    2.3281    1.0000 </r>
       <r>    2.8470    1.0000 </r>
       <r>    3.0462    1.0000 </r>
       <r>    5.4559    0.0000 </r>
       <r>    5.6026    0.0000 </r>
       <r>    5.6729    0.0000 </r>
       <r>    5.6888    0.0000 </r>
       <r>    5.8309    0.0000 </r>
       <r>    5.8547    0.0000 </r>
       <r>    6.4170    0.0000 </r>
       <r>    6.4379    0.0000 </r>
       <r>    9.8671    0.0000 </r>
       <r>   10.5256    0.0000 </r>
       <r>   10.8964    0.0000 </r>
       <r>   11.1953    0.0000 </r>
       <r>   13.2728    0.0000 </r>
       <r>   13.3685    0.0000 </r>
      </set>
      <set comment="kpoint 28">
       <r>  -10.2869    1.0000 </r>
       <r>  -10.2700    1.0000 </r>
       <r>   -9.4029    1.0000 </r>
       <r>   -9.3772    1.0000 </r>
       <r>   -1.9013    1.0000 </r>
       <r>   -1.7696    1.0000 </r>
       <r>   -0.5195    1.0000 </r>
       <r>   -0.5019    1.0000 </r>
       <r>   -0.1210    1.0000 </r>
       <r>    0.0037    1.0000 </r>
       <r>    0.5651    1.0000 </r>
       <r>    0.5900    1.0000 </r>
       <r>    1.1555    1.0000 </r>
       <r>    1.1575    1.0000 </r>
       <r>    2.0610    1.0000 </r>
       <r>    2.2597    1.0000 </r>
       <r>    2.5668    1.0000 </r>
       <r>    2.6367    1.0000 </r>
       <r>    5.1254    0.0000 </r>
       <r>    5.3846    0.0000 </r>
       <r>    5.5874    0.0000 </r>
       <r>    5.6318    0.0000 </r>
       <r>    5.6769    0.0000 </r>
       <r>    5.8026    0.0000 </r>
       <r>    6.8539    0.0000 </r>
       <r>    6.9086    0.0000 </r>
       <r>   10.2800    0.0000 </r>
       <r>   10.8265    0.0000 </r>
       <r>   11.8621    0.0000 </r>
       <r>   12.1948    0.0000 </r>
       <r>   12.8436    0.0000 </r>
       <r>   12.8871    0.0000 </r>
      </set>
      <set comment="kpoint 29">
       <r>   -9.8422    1.0000 </r>
       <r>   -9.8274    1.0000 </r>
       <r>   -9.1933    1.0000 </r>
       <r>   -9.1733    1.0000 </r>
       <r>   -1.8931    1.0000 </r>
       <r>   -1.8258    1.0000 </r>
       <r>   -0.7432    1.0000 </r>
       <r>   -0.7294    1.0000 </r>
       <r>   -0.6820    1.0000 </r>
       <r>   -0.6581    1.0000 </r>
       <r>    0.1974    1.0000 </r>
       <r>    0.2398    1.0000 </r>
       <r>    1.4092    1.0000 </r>
       <r>    1.4112    1.0000 </r>
       <r>    1.7995    1.0000 </r>
       <r>    1.9268    1.0000 </r>
       <r>    2.2932    1.0000 </r>
       <r>    2.3159    1.0000 </r>
       <r>    5.0810    0.0000 </r>
       <r>    5.2752    0.0000 </r>
       <r>    5.5064    0.0000 </r>
       <r>    5.6254    0.0000 </r>
       <r>    6.0094    0.0000 </r>
       <r>    6.2231    0.0000 </r>
       <r>    7.1929    0.0000 </r>
       <r>    7.2828    0.0000 </r>
       <r>   10.5378    0.0000 </r>
       <r>   11.0437    0.0000 </r>
       <r>   11.5733    0.0000 </r>
       <r>   11.8110    0.0000 </r>
       <r>   12.2372    0.0000 </r>
       <r>   12.5646    0.0000 </r>
      </set>
      <set comment="kpoint 30">
       <r>   -9.4047    1.0000 </r>
       <r>   -9.3935    1.0000 </r>
       <r>   -8.9916    1.0000 </r>
       <r>   -8.9783    1.0000 </r>
       <r>   -2.2118    1.0000 </r>
       <r>   -2.1786    1.0000 </r>
       <r>   -1.3217    1.0000 </r>
       <r>   -1.2932    1.0000 </r>
       <r>   -0.7703    1.0000 </r>
       <r>   -0.6923    1.0000 </r>
[...]
       <r>   12.4947    0.0000 </r>
       <r>   12.4947    0.0000 </r>
      </set>
      <set comment="kpoint 131">
       <r>   -9.1400    1.0000 </r>
       <r>   -9.1400    1.0000 </r>
       <r>   -8.8462    1.0000 </r>
       <r>   -8.8462    1.0000 </r>
       <r>   -1.9413    1.0000 </r>
       <r>   -1.9413    1.0000 </r>
       <r>   -1.7372    1.0000 </r>
       <r>   -1.7372    1.0000 </r>
       <r>   -0.4510    1.0000 </r>
       <r>   -0.4510    1.0000 </r>
       <r>   -0.0662    1.0000 </r>
       <r>   -0.0662    1.0000 </r>
       <r>    0.2496    1.0000 </r>
       <r>    0.2496    1.0000 </r>
       <r>    1.5191    1.0000 </r>
       <r>    1.5191    1.0000 </r>
       <r>    2.6394    1.0000 </r>
       <r>    2.6394    1.0000 </r>
       <r>    5.3021    0.0000 </r>
       <r>    5.3021    0.0000 </r>
       <r>    5.9118    0.0000 </r>
       <r>    5.9118    0.0000 </r>
       <r>    6.2435    0.0000 </r>
       <r>    6.2435    0.0000 </r>
       <r>    7.7230    0.0000 </r>
       <r>    7.7230    0.0000 </r>
       <r>   10.7191    0.0000 </r>
       <r>   10.7191    0.0000 </r>
       <r>   11.5661    0.0000 </r>
       <r>   11.5661    0.0000 </r>
       <r>   12.2932    0.0000 </r>
       <r>   12.2932    0.0000 </r>
      </set>
      <set comment="kpoint 132">
       <r>   -8.9312    1.0000 </r>
       <r>   -8.9312    1.0000 </r>
       <r>   -8.7409    1.0000 </r>
       <r>   -8.7409    1.0000 </r>
       <r>   -2.0793    1.0000 </r>
       <r>   -2.0793    1.0000 </r>
       <r>   -1.8071    1.0000 </r>
       <r>   -1.8071    1.0000 </r>
       <r>   -0.6613    1.0000 </r>
       <r>   -0.6613    1.0000 </r>
       <r>   -0.0593    1.0000 </r>
       <r>   -0.0593    1.0000 </r>
       <r>    0.1237    1.0000 </r>
       <r>    0.1237    1.0000 </r>
       <r>    1.1910    1.0000 </r>
       <r>    1.1910    1.0000 </r>
       <r>    2.9470    1.0000 </r>
       <r>    2.9470    1.0000 </r>
       <r>    5.0396    0.0000 </r>
       <r>    5.0396    0.0000 </r>
       <r>    6.2683    0.0000 </r>
       <r>    6.2683    0.0000 </r>
       <r>    6.4025    0.0000 </r>
       <r>    6.4025    0.0000 </r>
       <r>    7.8471    0.0000 </r>
       <r>    7.8471    0.0000 </r>
       <r>   10.2085    0.0000 </r>
       <r>   10.2085    0.0000 </r>
       <r>   11.4296    0.0000 </r>
       <r>   11.4296    0.0000 </r>
       <r>   12.3298    0.0000 </r>
       <r>   12.3298    0.0000 </r>
      </set>
      <set comment="kpoint 133">
       <r>   -8.8565    1.0000 </r>
       <r>   -8.8565    1.0000 </r>
       <r>   -8.6976    1.0000 </r>
       <r>   -8.6976    1.0000 </r>
       <r>   -2.2235    1.0000 </r>
       <r>   -2.2235    1.0000 </r>
       <r>   -1.4035    1.0000 </r>
       <r>   -1.4035    1.0000 </r>
       <r>   -0.9100    1.0000 </r>
       <r>   -0.9100    1.0000 </r>
       <r>   -0.4138    1.0000 </r>
       <r>   -0.4138    1.0000 </r>
       <r>    0.2749    1.0000 </r>
       <r>    0.2749    1.0000 </r>
       <r>    1.0059    1.0000 </r>
       <r>    1.0059    1.0000 </r>
       <r>    3.1353    1.0000 </r>
       <r>    3.1353    1.0000 </r>
       <r>    4.8062    0.0000 </r>
       <r>    4.8062    0.0000 </r>
       <r>    6.1876    0.0000 </r>
       <r>    6.1876    0.0000 </r>
       <r>    6.6503    0.0000 </r>
       <r>    6.6503    0.0000 </r>
       <r>    7.9858    0.0000 </r>
       <r>    7.9858    0.0000 </r>
       <r>   10.3904    0.0000 </r>
       <r>   10.3904    0.0000 </r>
       <r>   10.8327    0.0000 </r>
       <r>   10.8327    0.0000 </r>
       <r>   12.5807    0.0000 </r>
       <r>   12.5807    0.0000 </r>
      </set>
     </set>
    </set>
   </array>
  </eigenvalues>
  <separator name="orbital magnetization" >
   <v name="MAGDIPOLOUT">      0.00000000      0.00000000      0.00000000</v>
  </separator>
  <dos>
   <i name="efermi">      3.56542283 </i>
   <total>
    <array>
     <dimension dim="1">gridpoints</dimension>
     <dimension dim="2">spin</dimension>
     <field>energy</field>
     <field>total</field>
     <field>integrated</field>
     <set>
      <set comment="spin 1">
       <r>   -12.1359     0.0000     0.0000 </r>
       <r>   -12.0467     0.0000     0.0000 </r>
       <r>   -11.9576     0.0000     0.0000 </r>
       <r>   -11.8684     0.0000     0.0000 </r>
       <r>   -11.7792     0.0000     0.0000 </r>
       <r>   -11.6900     0.0000     0.0000 </r>
       <r>   -11.6008     0.0000     0.0000 </r>
       <r>   -11.5117     0.0000     0.0000 </r>
       <r>   -11.4225     0.0000     0.0000 </r>
       <r>   -11.3333     0.0000     0.0000 </r>
       <r>   -11.2441     0.0000     0.0000 </r>
       <r>   -11.1549     0.0000     0.0000 </r>
       <r>   -11.0658     0.0000     0.0000 </r>
       <r>   -10.9766     0.0102     0.0009 </r>
       <r>   -10.8874     0.2558     0.0237 </r>
       <r>   -10.7982     1.2773     0.1376 </r>
       <r>   -10.7090     0.6519     0.1958 </r>
       <r>   -10.6199     1.0479     0.2892 </r>
       <r>   -10.5307     1.8238     0.4519 </r>
       <r>   -10.4415     0.8425     0.5270 </r>
       <r>   -10.3523     0.0826     0.5344 </r>
       <r>   -10.2631     2.4132     0.7496 </r>
       <r>   -10.1740     1.3772     0.8724 </r>
       <r>   -10.0848     1.4555     1.0022 </r>
       <r>    -9.9956     0.2928     1.0283 </r>
       <r>    -9.9064     0.8644     1.1054 </r>
       <r>    -9.8172     3.5536     1.4223 </r>
       <r>    -9.7281     1.2823     1.5367 </r>
       <r>    -9.6389     2.4782     1.7577 </r>
       <r>    -9.5497     2.8309     2.0102 </r>
       <r>    -9.4605     5.0171     2.4576 </r>
       <r>    -9.3713     6.7496     3.0595 </r>
       <r>    -9.2821     4.0326     3.4191 </r>
       <r>    -9.1930     4.6251     3.8316 </r>
       <r>    -9.1038    10.8997     4.8037 </r>
       <r>    -9.0146     6.8805     5.4173 </r>
       <r>    -8.9254     9.4213     6.2575 </r>
       <r>    -8.8362    10.1554     7.1631 </r>
       <r>    -8.7471     6.4343     7.7369 </r>
       <r>    -8.6579     2.8327     7.9896 </r>
       <r>    -8.5687     0.1170     8.0000 </r>
       <r>    -8.4795     0.0001     8.0000 </r>
       <r>    -8.3903     0.0000     8.0000 </r>
       <r>    -8.3012     0.0000     8.0000 </r>
       <r>    -8.2120     0.0000     8.0000 </r>
       <r>    -8.1228     0.0000     8.0000 </r>
       <r>    -8.0336     0.0000     8.0000 </r>
       <r>    -7.9444     0.0000     8.0000 </r>
       <r>    -7.8553     0.0000     8.0000 </r>
       <r>    -7.7661     0.0000     8.0000 </r>
       <r>    -7.6769     0.0000     8.0000 </r>
       <r>    -7.5877     0.0000     8.0000 </r>
       <r>    -7.4985     0.0000     8.0000 </r>
       <r>    -7.4094     0.0000     8.0000 </r>
       <r>    -7.3202     0.0000     8.0000 </r>
       <r>    -7.2310     0.0000     8.0000 </r>
       <r>    -7.1418     0.0000     8.0000 </r>
       <r>    -7.0526     0.0000     8.0000 </r>
       <r>    -6.9635     0.0000     8.0000 </r>
       <r>    -6.8743     0.0000     8.0000 </r>
       <r>    -6.7851     0.0000     8.0000 </r>
       <r>    -6.6959     0.0000     8.0000 </r>
       <r>    -6.6067     0.0000     8.0000 </r>
       <r>    -6.5176     0.0000     8.0000 </r>
       <r>    -6.4284     0.0000     8.0000 </r>
       <r>    -6.3392     0.0000     8.0000 </r>
       <r>    -6.2500     0.0000     8.0000 </r>
       <r>    -6.1608     0.0000     8.0000 </r>
       <r>    -6.0716     0.0000     8.0000 </r>
       <r>    -5.9825     0.0000     8.0000 </r>
       <r>    -5.8933     0.0000     8.0000 </r>
       <r>    -5.8041     0.0000     8.0000 </r>
       <r>    -5.7149     0.0000     8.0000 </r>
       <r>    -5.6257     0.0000     8.0000 </r>
       <r>    -5.5366     0.0000     8.0000 </r>
       <r>    -5.4474     0.0000     8.0000 </r>
       <r>    -5.3582     0.0000     8.0000 </r>
       <r>    -5.2690     0.0000     8.0000 </r>
       <r>    -5.1798     0.0000     8.0000 </r>
       <r>    -5.0907     0.0000     8.0000 </r>
       <r>    -5.0015     0.0000     8.0000 </r>
       <r>    -4.9123     0.0000     8.0000 </r>
       <r>    -4.8231     0.0000     8.0000 </r>
       <r>    -4.7339     0.0000     8.0000 </r>
       <r>    -4.6448     0.0000     8.0000 </r>
       <r>    -4.5556     0.0000     8.0000 </r>
       <r>    -4.4664     0.0000     8.0000 </r>
       <r>    -4.3772     0.0000     8.0000 </r>
       <r>    -4.2880     0.0000     8.0000 </r>
       <r>    -4.1989     0.0000     8.0000 </r>
       <r>    -4.1097     0.0000     8.0000 </r>
       <r>    -4.0205     0.0000     8.0000 </r>
       <r>    -3.9313     0.0000     8.0000 </r>
       <r>    -3.8421     0.0000     8.0000 </r>
       <r>    -3.7530     0.0000     8.0000 </r>
       <r>    -3.6638     0.0000     8.0000 </r>
       <r>    -3.5746     0.0000     8.0000 </r>
       <r>    -3.4854     0.0000     8.0000 </r>
       <r>    -3.3962     0.0000     8.0000 </r>
       <r>    -3.3071     0.0000     8.0000 </r>
       <r>    -3.2179     0.0000     8.0000 </r>
       <r>    -3.1287     0.0000     8.0000 </r>
       <r>    -3.0395     0.0000     8.0000 </r>
       <r>    -2.9503     0.0000     8.0000 </r>
       <r>    -2.8611     0.0000     8.0000 </r>
       <r>    -2.7720     0.0000     8.0000 </r>
       <r>    -2.6828     0.0048     8.0004 </r>
       <r>    -2.5936     0.4159     8.0375 </r>
       <r>    -2.5044     0.8820     8.1162 </r>
       <r>    -2.4152     4.3296     8.5023 </r>
       <r>    -2.3261     2.0728     8.6872 </r>
       <r>    -2.2369     1.8294     8.8503 </r>
       <r>    -2.1477     6.9588     9.4709 </r>
       <r>    -2.0585     7.8995    10.1754 </r>
       <r>    -1.9693     4.6989    10.5944 </r>
       <r>    -1.8802     8.2116    11.3267 </r>
       <r>    -1.7910     9.0584    12.1346 </r>
       <r>    -1.7018     8.0801    12.8552 </r>
       <r>    -1.6126     5.4896    13.3447 </r>
       <r>    -1.5234     0.8703    13.4223 </r>
       <r>    -1.4343     1.4081    13.5479 </r>
       <r>    -1.3451     1.5706    13.6880 </r>
       <r>    -1.2559     2.9682    13.9527 </r>
       <r>    -1.1667     2.7575    14.1986 </r>
       <r>    -1.0775     1.2661    14.3115 </r>
       <r>    -0.9884     1.2324    14.4214 </r>
       <r>    -0.8992     2.2882    14.6255 </r>
       <r>    -0.8100     5.3960    15.1067 </r>
       <r>    -0.7208     8.9820    15.9077 </r>
       <r>    -0.6316    14.2650    17.1799 </r>
       <r>    -0.5425     6.4839    17.7581 </r>
       <r>    -0.4533     6.3442    18.3239 </r>
       <r>    -0.3641     3.1270    18.6028 </r>
       <r>    -0.2749     0.7330    18.6681 </r>
       <r>    -0.1857     1.5469    18.8061 </r>
       <r>    -0.0966     5.4610    19.2931 </r>
       <r>    -0.0074    15.1354    20.6429 </r>
       <r>     0.0818    11.2426    21.6455 </r>
       <r>     0.1710     5.0645    22.0972 </r>
       <r>     0.2602     5.4853    22.5864 </r>
       <r>     0.3493     5.3355    23.0622 </r>
       <r>     0.4385     1.4816    23.1943 </r>
       <r>     0.5277     1.1355    23.2956 </r>
       <r>     0.6169     4.3047    23.6795 </r>
       <r>     0.7061     3.4264    23.9850 </r>
       <r>     0.7953     3.1940    24.2699 </r>
       <r>     0.8844     5.7532    24.7830 </r>
       <r>     0.9736     5.1667    25.2437 </r>
       <r>     1.0628     2.1258    25.4333 </r>
       <r>     1.1520     5.5346    25.9269 </r>
       <r>     1.2412     7.3976    26.5866 </r>
       <r>     1.3303     5.3108    27.0602 </r>
       <r>     1.4195     7.9938    27.7731 </r>
       <r>     1.5087     9.0084    28.5765 </r>
       <r>     1.5979     7.9075    29.2817 </r>
       <r>     1.6871     4.0872    29.6462 </r>
       <r>     1.7762     3.1663    29.9286 </r>
       <r>     1.8654     6.4318    30.5022 </r>
       <r>     1.9546     3.3231    30.7985 </r>
       <r>     2.0438     2.1496    30.9902 </r>
       <r>     2.1330     5.4639    31.4775 </r>
       <r>     2.2221     5.3273    31.9526 </r>
       <r>     2.3113     4.6317    32.3656 </r>
       <r>     2.4005     8.0998    33.0880 </r>
       <r>     2.4897     6.5029    33.6679 </r>
       <r>     2.5789     2.0972    33.8549 </r>
       <r>     2.6680     8.5157    34.6144 </r>
       <r>     2.7572     3.5103    34.9274 </r>
       <r>     2.8464     1.9626    35.1025 </r>
       <r>     2.9356     3.6599    35.4289 </r>
       <r>     3.0248     3.7142    35.7601 </r>
       <r>     3.1139     1.0699    35.8555 </r>
       <r>     3.2031     0.9330    35.9387 </r>
       <r>     3.2923     0.5709    35.9896 </r>
       <r>     3.3815     0.1109    35.9995 </r>
       <r>     3.4707     0.0055    36.0000 </r>
       <r>     3.5598     0.0000    36.0000 </r>
       <r>     3.6490     0.0000    36.0000 </r>
       <r>     3.7382     0.0000    36.0000 </r>
       <r>     3.8274     0.0000    36.0000 </r>
       <r>     3.9166     0.0000    36.0000 </r>
       <r>     4.0058     0.0000    36.0000 </r>
       <r>     4.0949     0.0000    36.0000 </r>
       <r>     4.1841     0.0000    36.0000 </r>
       <r>     4.2733     0.0000    36.0000 </r>
       <r>     4.3625     0.0000    36.0000 </r>
       <r>     4.4517     0.0000    36.0000 </r>
       <r>     4.5408     0.0000    36.0000 </r>
       <r>     4.6300     0.0000    36.0000 </r>
       <r>     4.7192     0.0043    36.0004 </r>
       <r>     4.8084     0.3223    36.0291 </r>
       <r>     4.8976     0.3050    36.0563 </r>
       <r>     4.9867     0.6496    36.1143 </r>
       <r>     5.0759     4.0334    36.4740 </r>
       <r>     5.1651     4.5845    36.8828 </r>
       <r>     5.2543     6.6583    37.4766 </r>
       <r>     5.3435    13.3448    38.6667 </r>
       <r>     5.4326    10.1204    39.5692 </r>
       <r>     5.5218     4.9123    40.0073 </r>
       <r>     5.6110     8.6357    40.7775 </r>
       <r>     5.7002    11.6543    41.8168 </r>
       <r>     5.7894     8.8048    42.6020 </r>
       <r>     5.8785    10.6752    43.5540 </r>
       <r>     5.9677     7.8560    44.2546 </r>
       <r>     6.0569     4.0848    44.6189 </r>
       <r>     6.1461     6.7355    45.2196 </r>
       <r>     6.2353     6.6662    45.8141 </r>
       <r>     6.3244     3.5800    46.1334 </r>
       <r>     6.4136     4.8763    46.5682 </r>
       <r>     6.5028     6.1955    47.1207 </r>
       <r>     6.5920     4.4162    47.5146 </r>
       <r>     6.6812     3.3088    47.8097 </r>
       <r>     6.7703     1.5568    47.9485 </r>
       <r>     6.8595     1.8548    48.1139 </r>
       <r>     6.9487     5.5384    48.6078 </r>
       <r>     7.0379     2.8021    48.8577 </r>
       <r>     7.1271     1.6284    49.0029 </r>
       <r>     7.2163     2.9917    49.2697 </r>
       <r>     7.3054     5.7260    49.7804 </r>
       <r>     7.3946     5.9239    50.3087 </r>
       <r>     7.4838     5.3744    50.7880 </r>
       <r>     7.5730     3.4787    51.0982 </r>
       <r>     7.6622     3.4097    51.4023 </r>
       <r>     7.7513     1.8175    51.5644 </r>
       <r>     7.8405     2.1408    51.7553 </r>
       <r>     7.9297     1.7066    51.9075 </r>
       <r>     8.0189     0.9168    51.9893 </r>
       <r>     8.1081     0.1203    52.0000 </r>
       <r>     8.1972     0.0002    52.0000 </r>
       <r>     8.2864     0.0000    52.0000 </r>
       <r>     8.3756     0.0000    52.0000 </r>
       <r>     8.4648     0.0000    52.0000 </r>
       <r>     8.5540     0.0000    52.0000 </r>
       <r>     8.6431     0.0000    52.0000 </r>
       <r>     8.7323     0.0000    52.0000 </r>
       <r>     8.8215     0.0000    52.0000 </r>
       <r>     8.9107     0.0000    52.0000 </r>
       <r>     8.9999     0.0007    52.0001 </r>
       <r>     9.0890     0.0357    52.0032 </r>
       <r>     9.1782     0.0626    52.0088 </r>
       <r>     9.2674     0.2015    52.0268 </r>
       <r>     9.3566     0.6230    52.0824 </r>
       <r>     9.4458     0.4382    52.1214 </r>
       <r>     9.5349     1.2003    52.2285 </r>
       <r>     9.6241     2.8213    52.4801 </r>
       <r>     9.7133     1.4477    52.6092 </r>
       <r>     9.8025     1.9153    52.7800 </r>
       <r>     9.8917     1.3838    52.9034 </r>
       <r>     9.9808     0.9885    52.9916 </r>
       <r>    10.0700     1.0202    53.0826 </r>
       <r>    10.1592     2.5926    53.3138 </r>
       <r>    10.2484     4.6281    53.7265 </r>
       <r>    10.3376     4.0684    54.0893 </r>
       <r>    10.4268     2.8542    54.3439 </r>
       <r>    10.5159     3.6605    54.6703 </r>
       <r>    10.6051     3.4362    54.9768 </r>
       <r>    10.6943     2.6177    55.2102 </r>
       <r>    10.7835     2.8528    55.4646 </r>
       <r>    10.8727     3.8067    55.8041 </r>
       <r>    10.9618     2.9794    56.0698 </r>
       <r>    11.0510     3.6362    56.3941 </r>
       <r>    11.1402     3.9292    56.7445 </r>
       <r>    11.2294     4.3519    57.1326 </r>
       <r>    11.3186     3.6965    57.4623 </r>
       <r>    11.4077     4.0057    57.8195 </r>
       <r>    11.4969     3.7070    58.1501 </r>
       <r>    11.5861     4.1101    58.5166 </r>
       <r>    11.6753     5.8997    59.0428 </r>
       <r>    11.7645     5.1378    59.5009 </r>
       <r>    11.8536     4.3983    59.8932 </r>
       <r>    11.9428     2.8821    60.1502 </r>
       <r>    12.0320     3.0697    60.4240 </r>
       <r>    12.1212     3.5461    60.7402 </r>
       <r>    12.2104     3.6632    61.0669 </r>
       <r>    12.2995     3.2644    61.3580 </r>
       <r>    12.3887     2.9001    61.6166 </r>
       <r>    12.4779     2.4005    61.8307 </r>
       <r>    12.5671     3.9181    62.1801 </r>
       <r>    12.6563     3.7974    62.5188 </r>
       <r>    12.7454     3.9580    62.8718 </r>
       <r>    12.8346     3.2595    63.1625 </r>
       <r>    12.9238     4.0573    63.5243 </r>
       <r>    13.0130     0.9634    63.6102 </r>
       <r>    13.1022     1.0646    63.7051 </r>
       <r>    13.1913     1.1035    63.8036 </r>
       <r>    13.2805     0.6757    63.8638 </r>
       <r>    13.3697     1.0265    63.9554 </r>
       <r>    13.4589     0.4883    63.9989 </r>
       <r>    13.5481     0.0121    64.0000 </r>
       <r>    13.6372     0.0000    64.0000 </r>
       <r>    13.7264     0.0000    64.0000 </r>
       <r>    13.8156     0.0000    64.0000 </r>
       <r>    13.9048     0.0000    64.0000 </r>
       <r>    13.9940     0.0000    64.0000 </r>
       <r>    14.0832     0.0000    64.0000 </r>
       <r>    14.1723     0.0000    64.0000 </r>
       <r>    14.2615     0.0000    64.0000 </r>
       <r>    14.3507     0.0000    64.0000 </r>
       <r>    14.4399     0.0000    64.0000 </r>
       <r>    14.5291     0.0000    64.0000 </r>
       <r>    14.6182     0.0000    64.0000 </r>
      </set>
     </set>
    </array>
   </total>
  </dos>
 </calculation>
 <structure name="finalpos" >
  <crystal>
   <varray name="basis" >
    <v>       3.18531719      -0.00000000       0.00000000 </v>
    <v>      -1.59265860       2.75856491      -0.00000000 </v>
    <v>      -0.00000000       0.00000000      14.86003508 </v>
   </varray>
   <i name="volume">    130.57370526 </i>
   <varray name="rec_basis" >
    <v>       0.31394048       0.18125366       0.00000000 </v>
    <v>       0.00000000       0.36250733       0.00000000 </v>
    <v>       0.00000000       0.00000000       0.06729459 </v>
   </varray>
  </crystal>
  <varray name="positions" >
   <v>       0.66666700       0.33333300       0.25000000 </v>
   <v>       0.33333300       0.66666700       0.75000000 </v>
   <v>       0.33333300       0.66666700       0.14490265 </v>
   <v>       0.66666700       0.33333300       0.64490265 </v>
   <v>       0.33333300       0.66666700       0.35509735 </v>
   <v>       0.66666700       0.33333300       0.85509735 </v>
  </varray>
 </structure>
</modeling>
