
     Program PWSCF v.5.2.0 starts on 27May2017 at 18:36:19 

     This program is part of the open-source Quantum ESPRESSO suite
     for quantum simulation of materials; please cite
         "P. Giannozzi et al., J. Phys.:Condens. Matter 21 395502 (2009);
          URL http://www.quantum-espresso.org", 
     in publications or presentations arising from this work. More details at
     http://www.quantum-espresso.org/quote

     Parallel version (MPI), running on    32 processors
     R & G space division:  proc/nbgrp/npool/nimage =      32
     Waiting for input...
     Reading input from standard input
Warning: card &IONS ignored
Warning: card     ION_DYNAMICS = 'BFGS' ignored
Warning: card / ignored

     Current dimensions of program PWSCF are:
     Max number of different atomic species (ntypx) = 10
     Max number of k-points (npk) =  40000
     Max angular momentum in pseudopotentials (lmaxx) =  3

     Atomic positions and unit cell read from directory:
     ../out/MoS2-2H.save/
 
               file S.pbe-mt_fhi.UPF: wavefunction(s)  4f renormalized
               file Mo.pbe-mt_fhi.UPF: wavefunction(s)  4f renormalized

     Subspace diagonalization in iterative solution of the eigenvalue problem:
     scalapack distributed-memory algorithm (size of sub-group:  4*  4 procs)

 
     Parallelization info
     --------------------
     sticks:   dense  smooth     PW     G-vecs:    dense   smooth      PW
     Min          11      11      3                  833      833     139
     Max          12      12      4                  854      854     156
     Sum         367     367    121                26935    26935    4705
 


     bravais-lattice index     =            4
     lattice parameter (alat)  =       6.0288  a.u.
     unit-cell volume          =     885.0514 (a.u.)^3
     number of atoms/cell      =            6
     number of atomic types    =            2
     number of electrons       =        36.00
     number of Kohn-Sham states=           22
     kinetic-energy cutoff     =      37.0000  Ry
     charge density cutoff     =     148.0000  Ry
     Exchange-correlation      = PBE ( 1  4  3  4 0 0)

     celldm(1)=   6.028823  celldm(2)=   0.000000  celldm(3)=   4.663803
     celldm(4)=   0.000000  celldm(5)=   0.000000  celldm(6)=   0.000000

     crystal axes: (cart. coord. in units of alat)
               a(1) = (   1.000000   0.000000   0.000000 )  
               a(2) = (  -0.500000   0.866025   0.000000 )  
               a(3) = (   0.000000   0.000000   4.663803 )  

     reciprocal axes: (cart. coord. in units 2 pi/alat)
               b(1) = (  1.000000  0.577350  0.000000 )  
               b(2) = (  0.000000  1.154701  0.000000 )  
               b(3) = (  0.000000  0.000000  0.214417 )  


     PseudoPot. # 1 for  S read from file:
     /home/rehnd/.local/espresso-5.2.0/pseudo/S.pbe-mt_fhi.UPF
     MD5 check sum: 8d6311f2b0c6b1fe55ff6ee81ecbd648
     Pseudo is Norm-conserving, Zval =  6.0
     Generated using FHI98PP, converted with fhi2upf.x v.5.0.2
     Using radial grid of  501 points,  3 beta functions with: 
                l(1) =   0
                l(2) =   1
                l(3) =   3

     PseudoPot. # 2 for Mo read from file:
     /home/rehnd/.local/espresso-5.2.0/pseudo/Mo.pbe-mt_fhi.UPF
     MD5 check sum: 18396533d2e139d8400b78c5161bcdb0
     Pseudo is Norm-conserving, Zval =  6.0
     Generated using FHI98PP, converted with fhi2upf.x v.5.0.2
     Using radial grid of  541 points,  3 beta functions with: 
                l(1) =   0
                l(2) =   2
                l(3) =   3

     atomic species   valence    mass     pseudopotential
        S              6.00    32.06500      S( 1.00)
        Mo             6.00    95.94000     Mo( 1.00)

     24 Sym. Ops., with inversion, found (12 have fractional translation)


                                    s                        frac. trans.

      isym =  1     identity                                     

 cryst.   s( 1) = (     1          0          0      )
                  (     0          1          0      )
                  (     0          0          1      )

 cart.    s( 1) = (  1.0000000  0.0000000  0.0000000 )
                  (  0.0000000  1.0000000  0.0000000 )
                  (  0.0000000  0.0000000  1.0000000 )


      isym =  2     180 deg rotation - cart. axis [0,0,1]        

 cryst.   s( 2) = (    -1          0          0      )    f =(  0.0000000 )
                  (     0         -1          0      )       (  0.0000000 )
                  (     0          0          1      )       (  0.5000000 )

 cart.    s( 2) = ( -1.0000000  0.0000000  0.0000000 )    f =(  0.0000000 )
                  (  0.0000000 -1.0000000  0.0000000 )       (  0.0000000 )
                  (  0.0000000  0.0000000  1.0000000 )       (  2.3319013 )


      isym =  3     180 deg rotation - cart. axis [0,1,0]        

 cryst.   s( 3) = (    -1          0          0      )    f =(  0.0000000 )
                  (     1          1          0      )       (  0.0000000 )
                  (     0          0         -1      )       (  0.5000000 )

 cart.    s( 3) = ( -1.0000000  0.0000000  0.0000000 )    f =(  0.0000000 )
                  (  0.0000000  1.0000000  0.0000000 )       (  0.0000000 )
                  (  0.0000000  0.0000000 -1.0000000 )       (  2.3319013 )


      isym =  4     180 deg rotation - cart. axis [1,0,0]        

 cryst.   s( 4) = (     1          0          0      )
                  (    -1         -1          0      )
                  (     0          0         -1      )

 cart.    s( 4) = (  1.0000000  0.0000000  0.0000000 )
                  (  0.0000000 -1.0000000  0.0000000 )
                  (  0.0000000  0.0000000 -1.0000000 )


      isym =  5      60 deg rotation - cryst. axis [0,0,1]       

 cryst.   s( 5) = (     1          1          0      )    f =(  0.0000000 )
                  (    -1          0          0      )       (  0.0000000 )
                  (     0          0          1      )       (  0.5000000 )

 cart.    s( 5) = (  0.5000000 -0.8660254  0.0000000 )    f =(  0.0000000 )
                  (  0.8660254  0.5000000  0.0000000 )       (  0.0000000 )
                  (  0.0000000  0.0000000  1.0000000 )       (  2.3319013 )


      isym =  6      60 deg rotation - cryst. axis [0,0,-1]      

 cryst.   s( 6) = (     0         -1          0      )    f =(  0.0000000 )
                  (     1          1          0      )       (  0.0000000 )
                  (     0          0          1      )       (  0.5000000 )

 cart.    s( 6) = (  0.5000000  0.8660254  0.0000000 )    f =(  0.0000000 )
                  ( -0.8660254  0.5000000  0.0000000 )       (  0.0000000 )
                  (  0.0000000  0.0000000  1.0000000 )       (  2.3319013 )


      isym =  7     120 deg rotation - cryst. axis [0,0,1]       

 cryst.   s( 7) = (     0          1          0      )
                  (    -1         -1          0      )
                  (     0          0          1      )

 cart.    s( 7) = ( -0.5000000 -0.8660254  0.0000000 )
                  (  0.8660254 -0.5000000  0.0000000 )
                  (  0.0000000  0.0000000  1.0000000 )


      isym =  8     120 deg rotation - cryst. axis [0,0,-1]      

 cryst.   s( 8) = (    -1         -1          0      )
                  (     1          0          0      )
                  (     0          0          1      )

 cart.    s( 8) = ( -0.5000000  0.8660254  0.0000000 )
                  ( -0.8660254 -0.5000000  0.0000000 )
                  (  0.0000000  0.0000000  1.0000000 )


      isym =  9     180 deg rotation - cryst. axis [1,-1,0]      

 cryst.   s( 9) = (     0         -1          0      )    f =(  0.0000000 )
                  (    -1          0          0      )       (  0.0000000 )
                  (     0          0         -1      )       (  0.5000000 )

 cart.    s( 9) = (  0.5000000 -0.8660254  0.0000000 )    f =(  0.0000000 )
                  ( -0.8660254 -0.5000000  0.0000000 )       (  0.0000000 )
                  (  0.0000000  0.0000000 -1.0000000 )       (  2.3319013 )


      isym = 10     180 deg rotation - cryst. axis [2,1,0]       

 cryst.   s(10) = (     1          1          0      )    f =(  0.0000000 )
                  (     0         -1          0      )       (  0.0000000 )
                  (     0          0         -1      )       (  0.5000000 )

 cart.    s(10) = (  0.5000000  0.8660254  0.0000000 )    f =(  0.0000000 )
                  (  0.8660254 -0.5000000  0.0000000 )       (  0.0000000 )
                  (  0.0000000  0.0000000 -1.0000000 )       (  2.3319013 )


      isym = 11     180 deg rotation - cryst. axis [0,1,0]       

 cryst.   s(11) = (    -1         -1          0      )
                  (     0          1          0      )
                  (     0          0         -1      )

 cart.    s(11) = ( -0.5000000 -0.8660254  0.0000000 )
                  ( -0.8660254  0.5000000  0.0000000 )
                  (  0.0000000  0.0000000 -1.0000000 )


      isym = 12     180 deg rotation - cryst. axis [1,1,0]       

 cryst.   s(12) = (     0          1          0      )
                  (     1          0          0      )
                  (     0          0         -1      )

 cart.    s(12) = ( -0.5000000  0.8660254  0.0000000 )
                  (  0.8660254  0.5000000  0.0000000 )
                  (  0.0000000  0.0000000 -1.0000000 )


      isym = 13     inversion                                    

 cryst.   s(13) = (    -1          0          0      )
                  (     0         -1          0      )
                  (     0          0         -1      )

 cart.    s(13) = ( -1.0000000  0.0000000  0.0000000 )
                  (  0.0000000 -1.0000000  0.0000000 )
                  (  0.0000000  0.0000000 -1.0000000 )


      isym = 14     inv. 180 deg rotation - cart. axis [0,0,1]   

 cryst.   s(14) = (     1          0          0      )    f =(  0.0000000 )
                  (     0          1          0      )       (  0.0000000 )
                  (     0          0         -1      )       (  0.5000000 )

 cart.    s(14) = (  1.0000000  0.0000000  0.0000000 )    f =(  0.0000000 )
                  (  0.0000000  1.0000000  0.0000000 )       (  0.0000000 )
                  (  0.0000000  0.0000000 -1.0000000 )       (  2.3319013 )


      isym = 15     inv. 180 deg rotation - cart. axis [0,1,0]   

 cryst.   s(15) = (     1          0          0      )    f =(  0.0000000 )
                  (    -1         -1          0      )       (  0.0000000 )
                  (     0          0          1      )       (  0.5000000 )

 cart.    s(15) = (  1.0000000  0.0000000  0.0000000 )    f =(  0.0000000 )
                  (  0.0000000 -1.0000000  0.0000000 )       (  0.0000000 )
                  (  0.0000000  0.0000000  1.0000000 )       (  2.3319013 )


      isym = 16     inv. 180 deg rotation - cart. axis [1,0,0]   

 cryst.   s(16) = (    -1          0          0      )
                  (     1          1          0      )
                  (     0          0          1      )

 cart.    s(16) = ( -1.0000000  0.0000000  0.0000000 )
                  (  0.0000000  1.0000000  0.0000000 )
                  (  0.0000000  0.0000000  1.0000000 )


      isym = 17     inv.  60 deg rotation - cryst. axis [0,0,1]  

 cryst.   s(17) = (    -1         -1          0      )    f =(  0.0000000 )
                  (     1          0          0      )       (  0.0000000 )
                  (     0          0         -1      )       (  0.5000000 )

 cart.    s(17) = ( -0.5000000  0.8660254  0.0000000 )    f =(  0.0000000 )
                  ( -0.8660254 -0.5000000  0.0000000 )       (  0.0000000 )
                  (  0.0000000  0.0000000 -1.0000000 )       (  2.3319013 )


      isym = 18     inv.  60 deg rotation - cryst. axis [0,0,-1] 

 cryst.   s(18) = (     0          1          0      )    f =(  0.0000000 )
                  (    -1         -1          0      )       (  0.0000000 )
                  (     0          0         -1      )       (  0.5000000 )

 cart.    s(18) = ( -0.5000000 -0.8660254  0.0000000 )    f =(  0.0000000 )
                  (  0.8660254 -0.5000000  0.0000000 )       (  0.0000000 )
                  (  0.0000000  0.0000000 -1.0000000 )       (  2.3319013 )


      isym = 19     inv. 120 deg rotation - cryst. axis [0,0,1]  

 cryst.   s(19) = (     0         -1          0      )
                  (     1          1          0      )
                  (     0          0         -1      )

 cart.    s(19) = (  0.5000000  0.8660254  0.0000000 )
                  ( -0.8660254  0.5000000  0.0000000 )
                  (  0.0000000  0.0000000 -1.0000000 )


      isym = 20     inv. 120 deg rotation - cryst. axis [0,0,-1] 

 cryst.   s(20) = (     1          1          0      )
                  (    -1          0          0      )
                  (     0          0         -1      )

 cart.    s(20) = (  0.5000000 -0.8660254  0.0000000 )
                  (  0.8660254  0.5000000  0.0000000 )
                  (  0.0000000  0.0000000 -1.0000000 )


      isym = 21     inv. 180 deg rotation - cryst. axis [1,-1,0] 

 cryst.   s(21) = (     0          1          0      )    f =(  0.0000000 )
                  (     1          0          0      )       (  0.0000000 )
                  (     0          0          1      )       (  0.5000000 )

 cart.    s(21) = ( -0.5000000  0.8660254  0.0000000 )    f =(  0.0000000 )
                  (  0.8660254  0.5000000  0.0000000 )       (  0.0000000 )
                  (  0.0000000  0.0000000  1.0000000 )       (  2.3319013 )


      isym = 22     inv. 180 deg rotation - cryst. axis [2,1,0]  

 cryst.   s(22) = (    -1         -1          0      )    f =(  0.0000000 )
                  (     0          1          0      )       (  0.0000000 )
                  (     0          0          1      )       (  0.5000000 )

 cart.    s(22) = ( -0.5000000 -0.8660254  0.0000000 )    f =(  0.0000000 )
                  ( -0.8660254  0.5000000  0.0000000 )       (  0.0000000 )
                  (  0.0000000  0.0000000  1.0000000 )       (  2.3319013 )


      isym = 23     inv. 180 deg rotation - cryst. axis [0,1,0]  

 cryst.   s(23) = (     1          1          0      )
                  (     0         -1          0      )
                  (     0          0          1      )

 cart.    s(23) = (  0.5000000  0.8660254  0.0000000 )
                  (  0.8660254 -0.5000000  0.0000000 )
                  (  0.0000000  0.0000000  1.0000000 )


      isym = 24     inv. 180 deg rotation - cryst. axis [1,1,0]  

 cryst.   s(24) = (     0         -1          0      )
                  (    -1          0          0      )
                  (     0          0          1      )

 cart.    s(24) = (  0.5000000 -0.8660254  0.0000000 )
                  ( -0.8660254 -0.5000000  0.0000000 )
                  (  0.0000000  0.0000000  1.0000000 )


     point group D_6h(6/mmm)
     there are 12 classes
     the character table:

       E     2C6   2C3   C2    3C2'  3C2'' i     2S3   2S6   s_h   3s_d  3s_v 
A_1g   1.00  1.00  1.00  1.00  1.00  1.00  1.00  1.00  1.00  1.00  1.00  1.00
A_2g   1.00  1.00  1.00  1.00 -1.00 -1.00  1.00  1.00  1.00  1.00 -1.00 -1.00
B_1g   1.00 -1.00  1.00 -1.00  1.00 -1.00  1.00 -1.00  1.00 -1.00  1.00 -1.00
B_2g   1.00 -1.00  1.00 -1.00 -1.00  1.00  1.00 -1.00  1.00 -1.00 -1.00  1.00
E_1g   2.00  1.00 -1.00 -2.00  0.00  0.00  2.00  1.00 -1.00 -2.00  0.00  0.00
E_2g   2.00 -1.00 -1.00  2.00  0.00  0.00  2.00 -1.00 -1.00  2.00  0.00  0.00
A_1u   1.00  1.00  1.00  1.00  1.00  1.00 -1.00 -1.00 -1.00 -1.00 -1.00 -1.00
A_2u   1.00  1.00  1.00  1.00 -1.00 -1.00 -1.00 -1.00 -1.00 -1.00  1.00  1.00
B_1u   1.00 -1.00  1.00 -1.00  1.00 -1.00 -1.00  1.00 -1.00  1.00 -1.00  1.00
B_2u   1.00 -1.00  1.00 -1.00 -1.00  1.00 -1.00  1.00 -1.00  1.00  1.00 -1.00
E_1u   2.00  1.00 -1.00 -2.00  0.00  0.00 -2.00 -1.00  1.00  2.00  0.00  0.00
E_2u   2.00 -1.00 -1.00  2.00  0.00  0.00 -2.00  1.00  1.00 -2.00  0.00  0.00

     the symmetry operations in each class and the name of the first element:

     E        1
          identity                                               
     2C6      5    6
           60 deg rotation - cryst. axis [0,0,1]                 
     2C3      7    8
          120 deg rotation - cryst. axis [0,0,1]                 
     C2       2
          180 deg rotation - cart. axis [0,0,1]                  
     3C2'     4   12   11
          180 deg rotation - cart. axis [1,0,0]                  
     3C2''    3    9   10
          180 deg rotation - cart. axis [0,1,0]                  
     i       13
          inversion                                              
     2S3     17   18
          inv.  60 deg rotation - cryst. axis [0,0,1]            
     2S6     19   20
          inv. 120 deg rotation - cryst. axis [0,0,1]            
     s_h     14
          inv. 180 deg rotation - cart. axis [0,0,1]             
     3s_d    16   24   23
          inv. 180 deg rotation - cart. axis [1,0,0]             
     3s_v    15   21   22
          inv. 180 deg rotation - cart. axis [0,1,0]             

   Cartesian axes

     site n.     atom                  positions (alat units)
         1           S   tau(   1) = (  -0.0000005   0.5773506   0.6727329  )
         2           S   tau(   2) = (   0.5000005   0.2886748   3.0046342  )
         3           S   tau(   3) = (  -0.0000005   0.5773506   1.6591684  )
         4           S   tau(   4) = (   0.5000005   0.2886748   3.9910697  )
         5           Mo  tau(   5) = (   0.5000005   0.2886748   1.1659506  )
         6           Mo  tau(   6) = (  -0.0000005   0.5773506   3.4978519  )

   Crystallographic axes

     site n.     atom                  positions (cryst. coord.)
         1           S   tau(   1) = (  0.3333330  0.6666670  0.1442456  )
         2           S   tau(   2) = (  0.6666670  0.3333330  0.6442456  )
         3           S   tau(   3) = (  0.3333330  0.6666670  0.3557544  )
         4           S   tau(   4) = (  0.6666670  0.3333330  0.8557544  )
         5           Mo  tau(   5) = (  0.6666670  0.3333330  0.2500000  )
         6           Mo  tau(   6) = (  0.3333330  0.6666670  0.7500000  )

     number of k points=    38  gaussian smearing, width (Ry)=  0.0050
                       cart. coord. in units 2pi/alat
        k(    1) = (   0.0000000   0.0000000   0.0000000), wk =   0.0069444
        k(    2) = (   0.0000000   0.0000000  -0.1072087), wk =   0.0069444
        k(    3) = (   0.0000000   0.0962250   0.0000000), wk =   0.0416667
        k(    4) = (   0.0000000   0.0962250  -0.1072087), wk =   0.0416667
        k(    5) = (   0.0000000   0.1924501   0.0000000), wk =   0.0416667
        k(    6) = (   0.0000000   0.1924501  -0.1072087), wk =   0.0416667
        k(    7) = (   0.0000000   0.2886751   0.0000000), wk =   0.0416667
        k(    8) = (   0.0000000   0.2886751  -0.1072087), wk =   0.0416667
        k(    9) = (   0.0000000   0.3849002   0.0000000), wk =   0.0416667
        k(   10) = (   0.0000000   0.3849002  -0.1072087), wk =   0.0416667
        k(   11) = (   0.0000000   0.4811252   0.0000000), wk =   0.0416667
        k(   12) = (   0.0000000   0.4811252  -0.1072087), wk =   0.0416667
        k(   13) = (   0.0000000  -0.5773503   0.0000000), wk =   0.0208333
        k(   14) = (   0.0000000  -0.5773503  -0.1072087), wk =   0.0208333
        k(   15) = (   0.0833333   0.1443376   0.0000000), wk =   0.0416667
        k(   16) = (   0.0833333   0.1443376  -0.1072087), wk =   0.0416667
        k(   17) = (   0.0833333   0.2405626   0.0000000), wk =   0.0833333
        k(   18) = (   0.0833333   0.2405626  -0.1072087), wk =   0.0833333
        k(   19) = (   0.0833333   0.3367877   0.0000000), wk =   0.0833333
        k(   20) = (   0.0833333   0.3367877  -0.1072087), wk =   0.0833333
        k(   21) = (   0.0833333   0.4330127   0.0000000), wk =   0.0833333
        k(   22) = (   0.0833333   0.4330127  -0.1072087), wk =   0.0833333
        k(   23) = (   0.0833333   0.5292377   0.0000000), wk =   0.0833333
        k(   24) = (   0.0833333   0.5292377  -0.1072087), wk =   0.0833333
        k(   25) = (   0.1666667   0.2886751   0.0000000), wk =   0.0416667
        k(   26) = (   0.1666667   0.2886751  -0.1072087), wk =   0.0416667
        k(   27) = (   0.1666667   0.3849002   0.0000000), wk =   0.0833333
        k(   28) = (   0.1666667   0.3849002  -0.1072087), wk =   0.0833333
        k(   29) = (   0.1666667   0.4811252   0.0000000), wk =   0.0833333
        k(   30) = (   0.1666667   0.4811252  -0.1072087), wk =   0.0833333
        k(   31) = (   0.1666667   0.5773503   0.0000000), wk =   0.0416667
        k(   32) = (   0.1666667   0.5773503  -0.1072087), wk =   0.0416667
        k(   33) = (   0.2500000   0.4330127   0.0000000), wk =   0.0416667
        k(   34) = (   0.2500000   0.4330127  -0.1072087), wk =   0.0416667
        k(   35) = (   0.2500000   0.5292377   0.0000000), wk =   0.0833333
        k(   36) = (   0.2500000   0.5292377  -0.1072087), wk =   0.0833333
        k(   37) = (   0.3333333   0.5773503   0.0000000), wk =   0.0138889
        k(   38) = (   0.3333333   0.5773503  -0.1072087), wk =   0.0138889

                       cryst. coord.
        k(    1) = (   0.0000000   0.0000000   0.0000000), wk =   0.0069444
        k(    2) = (   0.0000000   0.0000000  -0.5000000), wk =   0.0069444
        k(    3) = (   0.0000000   0.0833333   0.0000000), wk =   0.0416667
        k(    4) = (   0.0000000   0.0833333  -0.5000000), wk =   0.0416667
        k(    5) = (   0.0000000   0.1666667   0.0000000), wk =   0.0416667
        k(    6) = (   0.0000000   0.1666667  -0.5000000), wk =   0.0416667
        k(    7) = (   0.0000000   0.2500000   0.0000000), wk =   0.0416667
        k(    8) = (   0.0000000   0.2500000  -0.5000000), wk =   0.0416667
        k(    9) = (   0.0000000   0.3333333   0.0000000), wk =   0.0416667
        k(   10) = (   0.0000000   0.3333333  -0.5000000), wk =   0.0416667
        k(   11) = (   0.0000000   0.4166667   0.0000000), wk =   0.0416667
        k(   12) = (   0.0000000   0.4166667  -0.5000000), wk =   0.0416667
        k(   13) = (   0.0000000  -0.5000000   0.0000000), wk =   0.0208333
        k(   14) = (   0.0000000  -0.5000000  -0.5000000), wk =   0.0208333
        k(   15) = (   0.0833333   0.0833333   0.0000000), wk =   0.0416667
        k(   16) = (   0.0833333   0.0833333  -0.5000000), wk =   0.0416667
        k(   17) = (   0.0833333   0.1666667   0.0000000), wk =   0.0833333
        k(   18) = (   0.0833333   0.1666667  -0.5000000), wk =   0.0833333
        k(   19) = (   0.0833333   0.2500000   0.0000000), wk =   0.0833333
        k(   20) = (   0.0833333   0.2500000  -0.5000000), wk =   0.0833333
        k(   21) = (   0.0833333   0.3333333   0.0000000), wk =   0.0833333
        k(   22) = (   0.0833333   0.3333333  -0.5000000), wk =   0.0833333
        k(   23) = (   0.0833333   0.4166667   0.0000000), wk =   0.0833333
        k(   24) = (   0.0833333   0.4166667  -0.5000000), wk =   0.0833333
        k(   25) = (   0.1666667   0.1666667   0.0000000), wk =   0.0416667
        k(   26) = (   0.1666667   0.1666667  -0.5000000), wk =   0.0416667
        k(   27) = (   0.1666667   0.2500000   0.0000000), wk =   0.0833333
        k(   28) = (   0.1666667   0.2500000  -0.5000000), wk =   0.0833333
        k(   29) = (   0.1666667   0.3333333   0.0000000), wk =   0.0833333
        k(   30) = (   0.1666667   0.3333333  -0.5000000), wk =   0.0833333
        k(   31) = (   0.1666667   0.4166667   0.0000000), wk =   0.0416667
        k(   32) = (   0.1666667   0.4166667  -0.5000000), wk =   0.0416667
        k(   33) = (   0.2500000   0.2500000   0.0000000), wk =   0.0416667
        k(   34) = (   0.2500000   0.2500000  -0.5000000), wk =   0.0416667
        k(   35) = (   0.2500000   0.3333333   0.0000000), wk =   0.0833333
        k(   36) = (   0.2500000   0.3333333  -0.5000000), wk =   0.0833333
        k(   37) = (   0.3333333   0.3333333   0.0000000), wk =   0.0138889
        k(   38) = (   0.3333333   0.3333333  -0.5000000), wk =   0.0138889

     Dense  grid:    26935 G-vectors     FFT dimensions: (  24,  24, 120)

     Largest allocated arrays     est. size (Mb)     dimensions
        Kohn-Sham Wavefunctions         0.04 Mb     (     125,   22)
        NL pseudopotentials             0.13 Mb     (     125,   70)
        Each V/rho on FFT grid          0.04 Mb     (    2304)
        Each G-vector array             0.01 Mb     (     854)
        G-vector shells                 0.00 Mb     (     364)
     Largest temporary arrays     est. size (Mb)     dimensions
        Auxiliary wavefunctions         0.17 Mb     (     125,   88)
        Each subspace H/S matrix        0.01 Mb     (      22,   22)
        Each <psi_i|beta_j> matrix      0.02 Mb     (      70,   22)

     The potential is recalculated from file :
     ../out/MoS2-2H.save/charge-density.dat

     Starting wfc are   96 randomized atomic wfcs

     Band Structure Calculation
     Davidson diagonalization with overlap

     Computing kpt #:     1
     total cpu time spent up to now is        1.5 secs

     Computing kpt #:     2
     total cpu time spent up to now is        2.0 secs

     Computing kpt #:     3
     total cpu time spent up to now is        2.4 secs

     Computing kpt #:     4
     total cpu time spent up to now is        2.8 secs

     Computing kpt #:     5
     total cpu time spent up to now is        3.4 secs

     Computing kpt #:     6
     total cpu time spent up to now is        3.8 secs

     Computing kpt #:     7
     total cpu time spent up to now is        4.2 secs

     Computing kpt #:     8
     total cpu time spent up to now is        4.6 secs

     Computing kpt #:     9
     total cpu time spent up to now is        4.9 secs

     Computing kpt #:    10
     total cpu time spent up to now is        5.3 secs

     Computing kpt #:    11
     total cpu time spent up to now is        5.7 secs

     Computing kpt #:    12
     total cpu time spent up to now is        6.1 secs

     Computing kpt #:    13
     total cpu time spent up to now is        6.4 secs

     Computing kpt #:    14
     total cpu time spent up to now is        6.8 secs

     Computing kpt #:    15
     total cpu time spent up to now is        7.4 secs

     Computing kpt #:    16
     total cpu time spent up to now is        8.0 secs

     Computing kpt #:    17
     total cpu time spent up to now is        8.4 secs

     Computing kpt #:    18
     total cpu time spent up to now is        9.0 secs

     Computing kpt #:    19
     total cpu time spent up to now is        9.4 secs

     Computing kpt #:    20
     total cpu time spent up to now is        9.8 secs

     Computing kpt #:    21
     total cpu time spent up to now is       10.2 secs

     Computing kpt #:    22
     total cpu time spent up to now is       10.6 secs

     Computing kpt #:    23
     total cpu time spent up to now is       10.9 secs

     Computing kpt #:    24
     total cpu time spent up to now is       11.3 secs

     Computing kpt #:    25
     total cpu time spent up to now is       11.9 secs

     Computing kpt #:    26
     total cpu time spent up to now is       12.4 secs

     Computing kpt #:    27
     total cpu time spent up to now is       12.8 secs

     Computing kpt #:    28
     total cpu time spent up to now is       13.2 secs

     Computing kpt #:    29
     total cpu time spent up to now is       13.6 secs

     Computing kpt #:    30
     total cpu time spent up to now is       14.0 secs

     Computing kpt #:    31
     total cpu time spent up to now is       14.4 secs

     Computing kpt #:    32
     total cpu time spent up to now is       14.8 secs

     Computing kpt #:    33
     total cpu time spent up to now is       15.2 secs

     Computing kpt #:    34
     total cpu time spent up to now is       15.6 secs

     Computing kpt #:    35
     total cpu time spent up to now is       16.2 secs

     Computing kpt #:    36
     total cpu time spent up to now is       16.7 secs

     Computing kpt #:    37
     total cpu time spent up to now is       17.2 secs

     Computing kpt #:    38
     total cpu time spent up to now is       17.7 secs

     ethr =  2.78E-13,  avg # of iterations = 38.7

     total cpu time spent up to now is       17.7 secs

     End of band structure calculation

          k = 0.0000 0.0000 0.0000 (  3337 PWs)   bands (ev):

    -8.3677  -8.3472  -7.2809  -7.2445   0.0821   0.2516   3.1574   3.1574
     3.1579   3.1579   3.5661   4.1394   4.2343   4.2344   4.2360   4.2360
     5.4481   5.8270   8.4671   8.4672   8.4690   8.4691

     occupation numbers 
     1.0000   1.0000   1.0000   1.0000   1.0000   1.0000   1.0000   1.0000
     1.0000   1.0000   1.0000   1.0000   1.0000   1.0000   1.0000   1.0000
     1.0000   1.0000   0.0000   0.0000   0.0000   0.0000

          k = 0.0000 0.0000-0.1072 (  3354 PWs)   bands (ev):

    -8.3576  -8.3576  -7.2633  -7.2633   0.1636   0.1636   3.1576   3.1576
     3.1576   3.1576   3.8268   3.8268   4.2351   4.2351   4.2352   4.2352
     5.6670   5.6670   8.4680   8.4680   8.4680   8.4681

     occupation numbers 
     1.0000   1.0000   1.0000   1.0000   1.0000   1.0000   1.0000   1.0000
     1.0000   1.0000   1.0000   1.0000   1.0000   1.0000   1.0000   1.0000
     1.0000   1.0000   0.0000   0.0000   0.0000   0.0000

          k = 0.0000 0.0962 0.0000 (  3342 PWs)   bands (ev):

    -8.2746  -8.2547  -7.2232  -7.1895   0.1886   0.3569   2.9309   2.9320
     3.2538   3.2548   3.2717   3.5807   4.0755   4.0777   4.3810   4.6161
     5.4241   5.7411   8.3271   8.3526   8.3604   8.4509

     occupation numbers 
     1.0000   1.0000   1.0000   1.0000   1.0000   1.0000   1.0000   1.0000
     1.0000   1.0000   1.0000   1.0000   1.0000   1.0000   1.0000   1.0000
     1.0000   1.0000   0.0000   0.0000   0.0000   0.0000

          k = 0.0000 0.0962-0.1072 (  3336 PWs)   bands (ev):

    -8.2645  -8.2645  -7.2063  -7.2063   0.2694   0.2694   2.9313   2.9313
     3.2543   3.2543   3.4346   3.4346   4.0766   4.0766   4.4652   4.4652
     5.6114   5.6114   8.3323   8.3323   8.4141   8.4141

     occupation numbers 
     1.0000   1.0000   1.0000   1.0000   1.0000   1.0000   1.0000   1.0000
     1.0000   1.0000   1.0000   1.0000   1.0000   1.0000   1.0000   1.0000
     1.0000   1.0000   0.0000   0.0000   0.0000   0.0000

          k = 0.0000 0.1925 0.0000 (  3342 PWs)   bands (ev):

    -8.0078  -7.9889  -7.0604  -7.0299   0.4644   0.6254   2.3960   2.4024
     2.7358   2.9174   3.5237   3.5256   3.7025   3.7056   4.3975   4.6632
     5.2692   5.4308   7.8349   8.1106   8.2407   8.2766

     occupation numbers 
     1.0000   1.0000   1.0000   1.0000   1.0000   1.0000   1.0000   1.0000
     1.0000   1.0000   1.0000   1.0000   1.0000   1.0000   1.0000   1.0000
     1.0000   1.0000   0.0000   0.0000   0.0000   0.0000

          k = 0.0000 0.1925-0.1072 (  3346 PWs)   bands (ev):

    -7.9986  -7.9986  -7.0450  -7.0450   0.5413   0.5413   2.3985   2.3985
     2.8334   2.8334   3.5247   3.5247   3.7040   3.7040   4.5091   4.5091
     5.3675   5.3675   7.9507   7.9507   8.2845   8.2845

     occupation numbers 
     1.0000   1.0000   1.0000   1.0000   1.0000   1.0000   1.0000   1.0000
     1.0000   1.0000   1.0000   1.0000   1.0000   1.0000   1.0000   1.0000
     1.0000   1.0000   0.0000   0.0000   0.0000   0.0000

          k = 0.0000 0.2887 0.0000 (  3344 PWs)   bands (ev):

    -7.6074  -7.5900  -6.8188  -6.7935   0.7100   0.8301   1.8697   1.9089
     2.1234   2.2237   3.2860   3.2897   3.9038   3.9077   4.1666   4.3822
     4.9104   4.9588   7.6717   8.0075   8.0124   8.0284

     occupation numbers 
     1.0000   1.0000   1.0000   1.0000   1.0000   1.0000   1.0000   1.0000
     1.0000   1.0000   1.0000   1.0000   1.0000   1.0000   1.0000   1.0000
     1.0000   1.0000   0.0000   0.0000   0.0000   0.0000

          k = 0.0000 0.2887-0.1072 (  3348 PWs)   bands (ev):

    -7.5989  -7.5989  -6.8060  -6.8060   0.7679   0.7679   1.8843   1.8843
     2.1812   2.1812   3.2879   3.2879   3.9058   3.9058   4.2668   4.2668
     4.9397   4.9397   7.8212   7.8212   8.0204   8.0204

     occupation numbers 
     1.0000   1.0000   1.0000   1.0000   1.0000   1.0000   1.0000   1.0000
     1.0000   1.0000   1.0000   1.0000   1.0000   1.0000   1.0000   1.0000
     1.0000   1.0000   0.0000   0.0000   0.0000   0.0000

          k = 0.0000 0.3849 0.0000 (  3376 PWs)   bands (ev):

    -7.1509  -7.1369  -6.5496  -6.5308   0.5235   0.5716   1.5070   1.5598
     1.6986   1.7874   2.9367   2.9408   3.9210   4.0700   4.2849   4.2919
     4.6576   4.7011   7.8793   7.8844   7.8967   8.1349

     occupation numbers 
     1.0000   1.0000   1.0000   1.0000   1.0000   1.0000   1.0000   1.0000
     1.0000   1.0000   1.0000   1.0000   1.0000   1.0000   1.0000   1.0000
     1.0000   1.0000   0.0000   0.0000   0.0000   0.0000

          k = 0.0000 0.3849-0.1072 (  3364 PWs)   bands (ev):

    -7.1439  -7.1439  -6.5398  -6.5398   0.5473   0.5473   1.5276   1.5276
     1.7491   1.7491   2.9388   2.9388   3.9927   3.9927   4.2884   4.2884
     4.6819   4.6819   7.8905   7.8905   7.9964   7.9964

     occupation numbers 
     1.0000   1.0000   1.0000   1.0000   1.0000   1.0000   1.0000   1.0000
     1.0000   1.0000   1.0000   1.0000   1.0000   1.0000   1.0000   1.0000
     1.0000   1.0000   0.0000   0.0000   0.0000   0.0000

          k = 0.0000 0.4811 0.0000 (  3390 PWs)   bands (ev):

    -6.7648  -6.7551  -6.3291  -6.3170   0.1269   0.1551   1.0330   1.0616
     1.6485   1.7321   2.7105   2.7148   3.7898   3.8668   4.5482   4.5588
     4.7787   4.8226   7.9078   7.9142   8.2270   8.3571

     occupation numbers 
     1.0000   1.0000   1.0000   1.0000   1.0000   1.0000   1.0000   1.0000
     1.0000   1.0000   1.0000   1.0000   1.0000   1.0000   1.0000   1.0000
     1.0000   1.0000   0.0000   0.0000   0.0000   0.0000

          k = 0.0000 0.4811-0.1072 (  3372 PWs)   bands (ev):

    -6.7596  -6.7596  -6.3227  -6.3227   0.1410   0.1410   1.0462   1.0462
     1.6916   1.6916   2.7127   2.7127   3.8273   3.8273   4.5535   4.5535
     4.8018   4.8018   7.9110   7.9110   8.2890   8.2890

     occupation numbers 
     1.0000   1.0000   1.0000   1.0000   1.0000   1.0000   1.0000   1.0000
     1.0000   1.0000   1.0000   1.0000   1.0000   1.0000   1.0000   1.0000
     1.0000   1.0000   0.0000   0.0000   0.0000   0.0000

          k = 0.0000-0.5774 0.0000 (  3376 PWs)   bands (ev):

    -6.6072  -6.6017  -6.2406  -6.2333  -0.0505  -0.0248   0.8539   0.8743
     1.6062   1.6836   2.6328   2.6370   3.7701   3.7827   4.6372   4.6495
     4.9346   4.9432   7.9502   7.9538   8.4262   8.4876

     occupation numbers 
     1.0000   1.0000   1.0000   1.0000   1.0000   1.0000   1.0000   1.0000
     1.0000   1.0000   1.0000   1.0000   1.0000   1.0000   1.0000   1.0000
     1.0000   1.0000   0.0000   0.0000   0.0000   0.0000

          k = 0.0000-0.5774-0.1072 (  3372 PWs)   bands (ev):

    -6.6042  -6.6042  -6.2371  -6.2371  -0.0377  -0.0377   0.8633   0.8633
     1.6457   1.6457   2.6349   2.6349   3.7762   3.7762   4.6433   4.6433
     4.9390   4.9390   7.9521   7.9521   8.4575   8.4575

     occupation numbers 
     1.0000   1.0000   1.0000   1.0000   1.0000   1.0000   1.0000   1.0000
     1.0000   1.0000   1.0000   1.0000   1.0000   1.0000   1.0000   1.0000
     1.0000   1.0000   0.0000   0.0000   0.0000   0.0000

          k = 0.0833 0.1443 0.0000 (  3338 PWs)   bands (ev):

    -8.0944  -8.0753  -7.1131  -7.0814   0.3820   0.5465   2.5617   2.5627
     2.9214   3.1447   3.4271   3.4282   3.6986   3.7071   4.5204   4.7742
     5.3351   5.5415   7.9546   8.1718   8.1806   8.2612

     occupation numbers 
     1.0000   1.0000   1.0000   1.0000   1.0000   1.0000   1.0000   1.0000
     1.0000   1.0000   1.0000   1.0000   1.0000   1.0000   1.0000   1.0000
     1.0000   1.0000   0.0000   0.0000   0.0000   0.0000

          k = 0.0833 0.1443-0.1072 (  3342 PWs)   bands (ev):

    -8.0850  -8.0850  -7.0974  -7.0974   0.4607   0.4607   2.5619   2.5619
     3.0399   3.0399   3.4277   3.4277   3.7026   3.7026   4.6210   4.6210
     5.4611   5.4611   8.0425   8.0425   8.2434   8.2434

     occupation numbers 
     1.0000   1.0000   1.0000   1.0000   1.0000   1.0000   1.0000   1.0000
     1.0000   1.0000   1.0000   1.0000   1.0000   1.0000   1.0000   1.0000
     1.0000   1.0000   0.0000   0.0000   0.0000   0.0000

          k = 0.0833 0.2406 0.0000 (  3341 PWs)   bands (ev):

    -7.7600  -7.7419  -6.9102  -6.8825   0.6643   0.8087   2.0574   2.0731
     2.4397   2.5717   3.1579   3.1870   3.6996   3.7017   4.4907   4.6944
     5.0696   5.1419   7.6191   7.8980   8.1044   8.1897

     occupation numbers 
     1.0000   1.0000   1.0000   1.0000   1.0000   1.0000   1.0000   1.0000
     1.0000   1.0000   1.0000   1.0000   1.0000   1.0000   1.0000   1.0000
     1.0000   1.0000   0.0000   0.0000   0.0000   0.0000

          k = 0.0833 0.2406-0.1072 (  3352 PWs)   bands (ev):

    -7.7514  -7.7514  -6.8962  -6.8962   0.7334   0.7334   2.0632   2.0632
     2.5128   2.5128   3.1719   3.1719   3.7006   3.7006   4.5795   4.5795
     5.1150   5.1150   7.7517   7.7517   8.1230   8.1230

     occupation numbers 
     1.0000   1.0000   1.0000   1.0000   1.0000   1.0000   1.0000   1.0000
     1.0000   1.0000   1.0000   1.0000   1.0000   1.0000   1.0000   1.0000
     1.0000   1.0000   0.0000   0.0000   0.0000   0.0000

          k = 0.0833 0.3368 0.0000 (  3373 PWs)   bands (ev):

    -7.3286  -7.3129  -6.6521  -6.6299   0.7050   0.7801   1.7731   1.8157
     1.8425   1.8746   2.8004   2.8455   3.9092   3.9116   4.2376   4.3731
     4.8071   4.8292   7.5842   7.8003   8.0502   8.1723

     occupation numbers 
     1.0000   1.0000   1.0000   1.0000   1.0000   1.0000   1.0000   1.0000
     1.0000   1.0000   1.0000   1.0000   1.0000   1.0000   1.0000   1.0000
     1.0000   1.0000   0.0000   0.0000   0.0000   0.0000

          k = 0.0833 0.3368-0.1072 (  3368 PWs)   bands (ev):

    -7.3207  -7.3207  -6.6409  -6.6409   0.7419   0.7419   1.7844   1.7844
     1.8689   1.8689   2.8241   2.8241   3.9102   3.9102   4.3016   4.3016
     4.8200   4.8200   7.6955   7.6955   8.0899   8.0899

     occupation numbers 
     1.0000   1.0000   1.0000   1.0000   1.0000   1.0000   1.0000   1.0000
     1.0000   1.0000   1.0000   1.0000   1.0000   1.0000   1.0000   1.0000
     1.0000   1.0000   0.0000   0.0000   0.0000   0.0000

          k = 0.0833 0.4330 0.0000 (  3371 PWs)   bands (ev):

    -6.8991  -6.8871  -6.4007  -6.3854   0.3725   0.4061   1.2185   1.2463
     1.7303   1.8145   2.6401   2.6723   3.9581   3.9936   4.0062   4.0377
     4.8911   4.9106   7.7800   7.9045   8.1869   8.2734

     occupation numbers 
     1.0000   1.0000   1.0000   1.0000   1.0000   1.0000   1.0000   1.0000
     1.0000   1.0000   1.0000   1.0000   1.0000   1.0000   1.0000   1.0000
     1.0000   1.0000   0.0000   0.0000   0.0000   0.0000

          k = 0.0833 0.4330-0.1072 (  3374 PWs)   bands (ev):

    -6.8931  -6.8931  -6.3931  -6.3931   0.3891   0.3891   1.2313   1.2313
     1.7729   1.7729   2.6573   2.6573   3.9798   3.9798   4.0167   4.0167
     4.9014   4.9014   7.8454   7.8454   8.2192   8.2192

     occupation numbers 
     1.0000   1.0000   1.0000   1.0000   1.0000   1.0000   1.0000   1.0000
     1.0000   1.0000   1.0000   1.0000   1.0000   1.0000   1.0000   1.0000
     1.0000   1.0000   0.0000   0.0000   0.0000   0.0000

          k = 0.0833 0.5292 0.0000 (  3378 PWs)   bands (ev):

    -6.6169  -6.6100  -6.2405  -6.2319   0.0864   0.1120   0.8617   0.8762
     1.6530   1.7290   2.5864   2.6031   3.7962   3.8306   4.0919   4.1056
     5.1047   5.1242   7.9324   7.9671   8.4194   8.4973

     occupation numbers 
     1.0000   1.0000   1.0000   1.0000   1.0000   1.0000   1.0000   1.0000
     1.0000   1.0000   1.0000   1.0000   1.0000   1.0000   1.0000   1.0000
     1.0000   1.0000   0.0000   0.0000   0.0000   0.0000

          k = 0.0833 0.5292-0.1072 (  3378 PWs)   bands (ev):

    -6.6135  -6.6135  -6.2362  -6.2362   0.0992   0.0992   0.8684   0.8684
     1.6912   1.6912   2.5955   2.5955   3.8125   3.8125   4.0992   4.0992
     5.1147   5.1147   7.9497   7.9497   8.4568   8.4568

     occupation numbers 
     1.0000   1.0000   1.0000   1.0000   1.0000   1.0000   1.0000   1.0000
     1.0000   1.0000   1.0000   1.0000   1.0000   1.0000   1.0000   1.0000
     1.0000   1.0000   0.0000   0.0000   0.0000   0.0000

          k = 0.1667 0.2887 0.0000 (  3360 PWs)   bands (ev):

    -7.3917  -7.3756  -6.6881  -6.6651   0.7784   0.8705   1.8523   1.9013
     2.0543   2.1034   2.5375   2.6284   3.6868   3.6871   4.4876   4.6088
     4.8777   4.8910   7.4581   7.7154   8.1064   8.2254

     occupation numbers 
     1.0000   1.0000   1.0000   1.0000   1.0000   1.0000   1.0000   1.0000
     1.0000   1.0000   1.0000   1.0000   1.0000   1.0000   1.0000   1.0000
     1.0000   1.0000   0.0000   0.0000   0.0000   0.0000

          k = 0.1667 0.2887-0.1072 (  3364 PWs)   bands (ev):

    -7.3838  -7.3838  -6.6766  -6.6766   0.8234   0.8234   1.8698   1.8698
     2.0858   2.0858   2.5848   2.5848   3.6869   3.6869   4.5439   4.5439
     4.8860   4.8860   7.5834   7.5834   8.1401   8.1401

     occupation numbers 
     1.0000   1.0000   1.0000   1.0000   1.0000   1.0000   1.0000   1.0000
     1.0000   1.0000   1.0000   1.0000   1.0000   1.0000   1.0000   1.0000
     1.0000   1.0000   0.0000   0.0000   0.0000   0.0000

          k = 0.1667 0.3849 0.0000 (  3352 PWs)   bands (ev):

    -6.9780  -6.9650  -6.4406  -6.4232   0.6173   0.6602   1.3969   1.4131
     1.8967   1.9658   2.4041   2.4925   3.3910   3.4002   4.2322   4.2856
     4.9281   4.9296   7.6054   7.8688   8.2469   8.2748

     occupation numbers 
     1.0000   1.0000   1.0000   1.0000   1.0000   1.0000   1.0000   1.0000
     1.0000   1.0000   1.0000   1.0000   1.0000   1.0000   1.0000   1.0000
     1.0000   1.0000   0.0000   0.0000   0.0000   0.0000

          k = 0.1667 0.3849-0.1072 (  3376 PWs)   bands (ev):

    -6.9719  -6.9719  -6.4324  -6.4324   0.6385   0.6385   1.4047   1.4047
     1.9277   1.9277   2.4527   2.4527   3.3954   3.3954   4.2574   4.2574
     4.9289   4.9289   7.7278   7.7278   8.2564   8.2564

     occupation numbers 
     1.0000   1.0000   1.0000   1.0000   1.0000   1.0000   1.0000   1.0000
     1.0000   1.0000   1.0000   1.0000   1.0000   1.0000   1.0000   1.0000
     1.0000   1.0000   0.0000   0.0000   0.0000   0.0000

          k = 0.1667 0.4811 0.0000 (  3377 PWs)   bands (ev):

    -6.6360  -6.6275  -6.2390  -6.2286   0.4069   0.4333   0.8796   0.8865
     1.8132   1.8783   2.4661   2.5268   3.2346   3.2566   3.9033   3.9315
     5.1555   5.1719   7.8217   7.9353   8.4711   8.5419

     occupation numbers 
     1.0000   1.0000   1.0000   1.0000   1.0000   1.0000   1.0000   1.0000
     1.0000   1.0000   1.0000   1.0000   1.0000   1.0000   1.0000   1.0000
     1.0000   1.0000   0.0000   0.0000   0.0000   0.0000

          k = 0.1667 0.4811-0.1072 (  3360 PWs)   bands (ev):

    -6.6315  -6.6315  -6.2334  -6.2334   0.4200   0.4200   0.8831   0.8831
     1.8441   1.8441   2.4987   2.4987   3.2457   3.2457   3.9165   3.9165
     5.1640   5.1640   7.8783   7.8783   8.4991   8.4992

     occupation numbers 
     1.0000   1.0000   1.0000   1.0000   1.0000   1.0000   1.0000   1.0000
     1.0000   1.0000   1.0000   1.0000   1.0000   1.0000   1.0000   1.0000
     1.0000   1.0000   0.0000   0.0000   0.0000   0.0000

          k = 0.1667 0.5774 0.0000 (  3362 PWs)   bands (ev):

    -6.4989  -6.4937  -6.1584  -6.1531   0.3217   0.3443   0.6905   0.6927
     1.7130   1.7778   2.5273   2.5689   3.2273   3.2481   3.7404   3.7764
     5.3170   5.3402   7.8033   7.8296   8.7318   8.7663

     occupation numbers 
     1.0000   1.0000   1.0000   1.0000   1.0000   1.0000   1.0000   1.0000
     1.0000   1.0000   1.0000   1.0000   1.0000   1.0000   1.0000   1.0000
     1.0000   1.0000   0.0000   0.0000   0.0000   0.0000

          k = 0.1667 0.5774-0.1072 (  3354 PWs)   bands (ev):

    -6.4964  -6.4964  -6.1553  -6.1553   0.3330   0.3330   0.6916   0.6916
     1.7443   1.7443   2.5497   2.5497   3.2379   3.2379   3.7575   3.7575
     5.3288   5.3288   7.8166   7.8166   8.7464   8.7464

     occupation numbers 
     1.0000   1.0000   1.0000   1.0000   1.0000   1.0000   1.0000   1.0000
     1.0000   1.0000   1.0000   1.0000   1.0000   1.0000   1.0000   1.0000
     1.0000   1.0000   0.0000   0.0000   0.0000   0.0000

          k = 0.2500 0.4330 0.0000 (  3388 PWs)   bands (ev):

    -6.6453  -6.6362  -6.2384  -6.2275   0.5992   0.6283   0.8864   0.8986
     2.0454   2.0746   2.3989   2.4818   2.6852   2.7045   3.9809   3.9843
     5.1537   5.1637   7.7545   7.9016   8.5040   8.5734

     occupation numbers 
     1.0000   1.0000   1.0000   1.0000   1.0000   1.0000   1.0000   1.0000
     1.0000   1.0000   1.0000   1.0000   1.0000   1.0000   1.0000   1.0000
     1.0000   1.0000   0.0000   0.0000   0.0000   0.0000

          k = 0.2500 0.4330-0.1072 (  3376 PWs)   bands (ev):

    -6.6406  -6.6406  -6.2326  -6.2326   0.6136   0.6136   0.8927   0.8927
     2.0561   2.0561   2.4449   2.4449   2.6950   2.6950   3.9815   3.9815
     5.1588   5.1588   7.8269   7.8269   8.5250   8.5250

     occupation numbers 
     1.0000   1.0000   1.0000   1.0000   1.0000   1.0000   1.0000   1.0000
     1.0000   1.0000   1.0000   1.0000   1.0000   1.0000   1.0000   1.0000
     1.0000   1.0000   0.0000   0.0000   0.0000   0.0000

          k = 0.2500 0.5292 0.0000 (  3352 PWs)   bands (ev):

    -6.4364  -6.4320  -6.1091  -6.1038   0.5664   0.5779   0.7140   0.7337
     1.8358   1.8746   2.3728   2.4031   2.5504   2.6043   3.6701   3.6994
     5.4502   5.4706   7.5744   7.5984   8.7858   8.9593

     occupation numbers 
     1.0000   1.0000   1.0000   1.0000   1.0000   1.0000   1.0000   1.0000
     1.0000   1.0000   1.0000   1.0000   1.0000   1.0000   1.0000   1.0000
     1.0000   1.0000   0.0000   0.0000   0.0000   0.0000

          k = 0.2500 0.5292-0.1072 (  3364 PWs)   bands (ev):

    -6.4343  -6.4343  -6.1069  -6.1069   0.5718   0.5718   0.7242   0.7242
     1.8539   1.8539   2.3844   2.3844   2.5831   2.5831   3.6833   3.6833
     5.4603   5.4603   7.5865   7.5866   8.8638   8.8638

     occupation numbers 
     1.0000   1.0000   1.0000   1.0000   1.0000   1.0000   1.0000   1.0000
     1.0000   1.0000   1.0000   1.0000   1.0000   1.0000   1.0000   1.0000
     1.0000   1.0000   0.0000   0.0000   0.0000   0.0000

          k = 0.3333 0.5774 0.0000 (  3372 PWs)   bands (ev):

    -6.3615  -6.3615  -6.0579  -6.0579   0.4424   0.4558   1.1653   1.1653
     1.4939   1.5163   2.0862   2.0862   2.6765   2.6765   3.5320   3.5320
     5.6421   5.6626   7.3460   7.3460   8.6829   8.8817

     occupation numbers 
     1.0000   1.0000   1.0000   1.0000   1.0000   1.0000   1.0000   1.0000
     1.0000   1.0000   1.0000   1.0000   1.0000   1.0000   1.0000   1.0000
     1.0000   1.0000   0.0000   0.0000   0.0000   0.0000

          k = 0.3333 0.5774-0.1072 (  3366 PWs)   bands (ev):

    -6.3619  -6.3619  -6.0573  -6.0573   0.4491   0.4491   1.1658   1.1658
     1.5051   1.5051   2.0830   2.0830   2.6813   2.6813   3.5299   3.5299
     5.6522   5.6522   7.3459   7.3459   8.7790   8.7790

     occupation numbers 
     1.0000   1.0000   1.0000   1.0000   1.0000   1.0000   1.0000   1.0000
     1.0000   1.0000   1.0000   1.0000   1.0000   1.0000   1.0000   1.0000
     1.0000   1.0000   0.0000   0.0000   0.0000   0.0000

     the Fermi energy is     6.8954 ev

     Writing output data file MoS2-2H.save
 
     init_run     :      0.07s CPU      0.17s WALL (       1 calls)
     electrons    :     16.86s CPU     16.95s WALL (       1 calls)

     Called by init_run:
     wfcinit      :      0.00s CPU      0.03s WALL (       1 calls)
     potinit      :      0.02s CPU      0.03s WALL (       1 calls)

     Called by electrons:
     c_bands      :     16.86s CPU     16.94s WALL (       1 calls)
     v_of_rho     :      0.00s CPU      0.01s WALL (       1 calls)
     v_h          :      0.00s CPU      0.00s WALL (       1 calls)
     v_xc         :      0.00s CPU      0.01s WALL (       1 calls)

     Called by c_bands:
     init_us_2    :      0.00s CPU      0.00s WALL (      38 calls)
     cegterg      :     15.53s CPU     15.59s WALL (      86 calls)

     Called by sum_band:

     Called by *egterg:
     h_psi        :      4.40s CPU      4.77s WALL (    1595 calls)
     g_psi        :      0.00s CPU      0.01s WALL (    1471 calls)
     cdiaghg      :      9.55s CPU      9.73s WALL (    1509 calls)
     cegterg:over :      1.66s CPU      0.97s WALL (    1471 calls)
     cegterg:upda :      0.43s CPU      0.64s WALL (    1471 calls)
     cegterg:last :      0.32s CPU      0.25s WALL (     304 calls)
     cdiaghg:chol :      0.61s CPU      0.34s WALL (    1509 calls)
     cdiaghg:inve :      0.00s CPU      0.09s WALL (    1509 calls)
     cdiaghg:para :      0.04s CPU      0.56s WALL (    3018 calls)

     Called by h_psi:
     h_psi:vloc   :      4.07s CPU      4.44s WALL (    1595 calls)
     h_psi:vnl    :      0.32s CPU      0.33s WALL (    1595 calls)
     add_vuspsi   :      0.10s CPU      0.12s WALL (    1595 calls)

     General routines
     calbec       :      0.22s CPU      0.21s WALL (    1595 calls)
     fft          :      0.01s CPU      0.01s WALL (      10 calls)
     fftw         :      3.99s CPU      4.32s WALL (   44948 calls)
     davcio       :      0.00s CPU      0.00s WALL (      76 calls)
 
     Parallel routines
     fft_scatter  :      2.32s CPU      2.43s WALL (   44958 calls)
 
     PWSCF        :    17.92s CPU        22.06s WALL

 
   This run was terminated on:  18:36:41  27May2017            

=------------------------------------------------------------------------------=
   JOB DONE.
=------------------------------------------------------------------------------=
