   6   6   0   0
  0.2176228E+02  0.3185317E-09  0.3185317E-09  0.1486004E-08  0.5000000E-15
  1.000000000000000E-004
  CAR 
 MoS2                                    
     14.77965085    -12.14336224  301      3.56733769      1.00000000
    -12.143  0.0000E+00  0.0000E+00
    -12.054  0.0000E+00  0.0000E+00
    -11.964  0.0000E+00  0.0000E+00
    -11.874  0.0000E+00  0.0000E+00
    -11.784  0.0000E+00  0.0000E+00
    -11.695  0.0000E+00  0.0000E+00
    -11.605  0.0000E+00  0.0000E+00
    -11.515  0.0000E+00  0.0000E+00
    -11.425  0.0000E+00  0.0000E+00
    -11.336  0.0000E+00  0.0000E+00
    -11.246  0.0000E+00  0.0000E+00
    -11.156  0.3987E-12  0.3578E-13
    -11.066  0.7961E-06  0.7144E-07
    -10.977  0.5126E-02  0.4601E-03
    -10.887  0.3312E+00  0.3019E-01
    -10.797  0.9793E+00  0.1181E+00
    -10.707  0.9664E+00  0.2048E+00
    -10.618  0.1301E+01  0.3215E+00
    -10.528  0.8028E+00  0.3936E+00
    -10.438  0.1556E+01  0.5332E+00
    -10.348  0.8129E+00  0.6061E+00
    -10.259  0.1455E+01  0.7368E+00
    -10.169  0.1275E+01  0.8512E+00
    -10.079  0.9672E+00  0.9380E+00
     -9.990  0.1858E+01  0.1105E+01
     -9.900  0.1158E+01  0.1209E+01
     -9.810  0.1366E+01  0.1331E+01
     -9.720  0.2149E+01  0.1524E+01
     -9.631  0.2601E+01  0.1757E+01
     -9.541  0.4301E+01  0.2143E+01
     -9.451  0.4639E+01  0.2560E+01
     -9.361  0.4260E+01  0.2942E+01
     -9.272  0.6221E+01  0.3500E+01
     -9.182  0.5567E+01  0.4000E+01
     -9.092  0.9159E+01  0.4822E+01
     -9.002  0.8268E+01  0.5564E+01
     -8.913  0.8991E+01  0.6371E+01
     -8.823  0.9968E+01  0.7265E+01
     -8.733  0.6072E+01  0.7810E+01
     -8.643  0.2062E+01  0.7995E+01
     -8.554  0.5026E-01  0.8000E+01
     -8.464  0.9617E-05  0.8000E+01
     -8.374  0.5132E-11  0.8000E+01
     -8.284  0.0000E+00  0.8000E+01
     -8.195  0.0000E+00  0.8000E+01
     -8.105  0.0000E+00  0.8000E+01
     -8.015  0.0000E+00  0.8000E+01
     -7.925  0.0000E+00  0.8000E+01
     -7.836  0.0000E+00  0.8000E+01
     -7.746  0.0000E+00  0.8000E+01
     -7.656  0.0000E+00  0.8000E+01
     -7.566  0.0000E+00  0.8000E+01
     -7.477  0.0000E+00  0.8000E+01
     -7.387  0.0000E+00  0.8000E+01
     -7.297  0.0000E+00  0.8000E+01
     -7.207  0.0000E+00  0.8000E+01
     -7.118  0.0000E+00  0.8000E+01
     -7.028  0.0000E+00  0.8000E+01
     -6.938  0.0000E+00  0.8000E+01
     -6.849  0.0000E+00  0.8000E+01
     -6.759  0.0000E+00  0.8000E+01
     -6.669  0.0000E+00  0.8000E+01
     -6.579  0.0000E+00  0.8000E+01
     -6.490  0.0000E+00  0.8000E+01
     -6.400  0.0000E+00  0.8000E+01
     -6.310  0.0000E+00  0.8000E+01
     -6.220  0.0000E+00  0.8000E+01
     -6.131  0.0000E+00  0.8000E+01
     -6.041  0.0000E+00  0.8000E+01
     -5.951  0.0000E+00  0.8000E+01
     -5.861  0.0000E+00  0.8000E+01
     -5.772  0.0000E+00  0.8000E+01
     -5.682  0.0000E+00  0.8000E+01
     -5.592  0.0000E+00  0.8000E+01
     -5.502  0.0000E+00  0.8000E+01
     -5.413  0.0000E+00  0.8000E+01
     -5.323  0.0000E+00  0.8000E+01
     -5.233  0.0000E+00  0.8000E+01
     -5.143  0.0000E+00  0.8000E+01
     -5.054  0.0000E+00  0.8000E+01
     -4.964  0.0000E+00  0.8000E+01
     -4.874  0.0000E+00  0.8000E+01
     -4.784  0.0000E+00  0.8000E+01
     -4.695  0.0000E+00  0.8000E+01
     -4.605  0.0000E+00  0.8000E+01
     -4.515  0.0000E+00  0.8000E+01
     -4.425  0.0000E+00  0.8000E+01
     -4.336  0.0000E+00  0.8000E+01
     -4.246  0.0000E+00  0.8000E+01
     -4.156  0.0000E+00  0.8000E+01
     -4.066  0.0000E+00  0.8000E+01
     -3.977  0.0000E+00  0.8000E+01
     -3.887  0.0000E+00  0.8000E+01
     -3.797  0.0000E+00  0.8000E+01
     -3.707  0.0000E+00  0.8000E+01
     -3.618  0.0000E+00  0.8000E+01
     -3.528  0.0000E+00  0.8000E+01
     -3.438  0.0000E+00  0.8000E+01
     -3.349  0.0000E+00  0.8000E+01
     -3.259  0.0000E+00  0.8000E+01
     -3.169  0.0000E+00  0.8000E+01
     -3.079  0.0000E+00  0.8000E+01
     -2.990  0.0000E+00  0.8000E+01
     -2.900  0.0000E+00  0.8000E+01
     -2.810  0.1938E-09  0.8000E+01
     -2.720  0.5311E-04  0.8000E+01
     -2.631  0.5185E-01  0.8005E+01
     -2.541  0.1142E+01  0.8107E+01
     -2.451  0.2054E+01  0.8292E+01
     -2.361  0.3275E+01  0.8585E+01
     -2.272  0.2742E+01  0.8831E+01
     -2.182  0.5231E+01  0.9301E+01
     -2.092  0.4708E+01  0.9723E+01
     -2.002  0.7598E+01  0.1041E+02
     -1.913  0.8459E+01  0.1116E+02
     -1.823  0.8612E+01  0.1194E+02
     -1.733  0.7388E+01  0.1260E+02
     -1.643  0.5261E+01  0.1307E+02
     -1.554  0.2337E+01  0.1328E+02
     -1.464  0.3031E+01  0.1355E+02
     -1.374  0.3265E+01  0.1385E+02
     -1.284  0.1022E+01  0.1394E+02
     -1.195  0.1101E+01  0.1404E+02
     -1.105  0.1605E+01  0.1418E+02
     -1.015  0.1876E+01  0.1435E+02
     -0.925  0.1902E+01  0.1452E+02
     -0.836  0.4715E+01  0.1494E+02
     -0.746  0.8898E+01  0.1574E+02
     -0.656  0.1189E+02  0.1681E+02
     -0.566  0.9314E+01  0.1764E+02
     -0.477  0.5955E+01  0.1818E+02
     -0.387  0.2945E+01  0.1844E+02
     -0.297  0.2811E+01  0.1870E+02
     -0.207  0.2623E+01  0.1893E+02
     -0.118  0.3290E+01  0.1923E+02
     -0.028  0.1003E+02  0.2013E+02
      0.062  0.1408E+02  0.2139E+02
      0.151  0.6974E+01  0.2202E+02
      0.241  0.4742E+01  0.2244E+02
      0.331  0.4606E+01  0.2286E+02
      0.421  0.2066E+01  0.2304E+02
      0.510  0.5264E+01  0.2351E+02
      0.600  0.2759E+01  0.2376E+02
      0.690  0.3989E+01  0.2412E+02
      0.780  0.2050E+01  0.2430E+02
      0.869  0.1904E+01  0.2447E+02
      0.959  0.4660E+01  0.2489E+02
      1.049  0.6338E+01  0.2546E+02
      1.139  0.3783E+01  0.2580E+02
      1.228  0.5817E+01  0.2632E+02
      1.318  0.8494E+01  0.2708E+02
      1.408  0.9112E+01  0.2790E+02
      1.498  0.8452E+01  0.2866E+02
      1.587  0.5038E+01  0.2911E+02
      1.677  0.5134E+01  0.2957E+02
      1.767  0.3663E+01  0.2990E+02
      1.857  0.3782E+01  0.3024E+02
      1.946  0.5275E+01  0.3072E+02
      2.036  0.4370E+01  0.3111E+02
      2.126  0.4322E+01  0.3150E+02
      2.216  0.4384E+01  0.3189E+02
      2.305  0.5191E+01  0.3235E+02
      2.395  0.7550E+01  0.3303E+02
      2.485  0.5721E+01  0.3355E+02
      2.575  0.5210E+01  0.3401E+02
      2.664  0.5285E+01  0.3449E+02
      2.754  0.3734E+01  0.3482E+02
      2.844  0.4166E+01  0.3520E+02
      2.934  0.2947E+01  0.3546E+02
      3.023  0.2646E+01  0.3570E+02
      3.113  0.1840E+01  0.3586E+02
      3.203  0.9239E+00  0.3595E+02
      3.292  0.4556E+00  0.3599E+02
      3.382  0.1374E+00  0.3600E+02
      3.472  0.3716E-02  0.3600E+02
      3.562  0.1243E-05  0.3600E+02
      3.651  0.1716E-11  0.3600E+02
      3.741  0.0000E+00  0.3600E+02
      3.831  0.0000E+00  0.3600E+02
      3.921  0.0000E+00  0.3600E+02
      4.010  0.0000E+00  0.3600E+02
      4.100  0.0000E+00  0.3600E+02
      4.190  0.0000E+00  0.3600E+02
      4.280  0.0000E+00  0.3600E+02
      4.369  0.0000E+00  0.3600E+02
      4.459  0.0000E+00  0.3600E+02
      4.549  0.6680E-16  0.3600E+02
      4.639  0.4539E-08  0.3600E+02
      4.728  0.5619E-03  0.3600E+02
      4.818  0.1821E+00  0.3602E+02
      4.908  0.6089E+00  0.3607E+02
      4.998  0.1547E+01  0.3621E+02
      5.087  0.2623E+01  0.3645E+02
      5.177  0.5172E+01  0.3691E+02
      5.267  0.8208E+01  0.3765E+02
      5.357  0.1392E+02  0.3890E+02
      5.446  0.7950E+01  0.3961E+02
      5.536  0.5107E+01  0.4007E+02
      5.626  0.9670E+01  0.4093E+02
      5.716  0.1137E+02  0.4196E+02
      5.805  0.1025E+02  0.4287E+02
      5.895  0.8881E+01  0.4367E+02
      5.985  0.6890E+01  0.4429E+02
      6.075  0.5100E+01  0.4475E+02
      6.164  0.5834E+01  0.4527E+02
      6.254  0.6218E+01  0.4583E+02
      6.344  0.5632E+01  0.4633E+02
      6.434  0.5068E+01  0.4679E+02
      6.523  0.4186E+01  0.4717E+02
      6.613  0.3663E+01  0.4749E+02
      6.703  0.3834E+01  0.4784E+02
      6.792  0.2121E+01  0.4803E+02
      6.882  0.3167E+01  0.4831E+02
      6.972  0.3421E+01  0.4862E+02
      7.062  0.2495E+01  0.4884E+02
      7.151  0.3348E+01  0.4914E+02
      7.241  0.2744E+01  0.4939E+02
      7.331  0.5227E+01  0.4986E+02
      7.421  0.7117E+01  0.5050E+02
      7.510  0.4428E+01  0.5090E+02
      7.600  0.3357E+01  0.5120E+02
      7.690  0.2725E+01  0.5144E+02
      7.780  0.2239E+01  0.5164E+02
      7.869  0.1810E+01  0.5181E+02
      7.959  0.1508E+01  0.5194E+02
      8.049  0.6422E+00  0.5200E+02
      8.139  0.2152E-01  0.5200E+02
      8.228  0.6793E-05  0.5200E+02
      8.318  0.6371E-11  0.5200E+02
      8.408  0.0000E+00  0.5200E+02
      8.498  0.0000E+00  0.5200E+02
      8.587  0.0000E+00  0.5200E+02
      8.677  0.0000E+00  0.5200E+02
      8.767  0.0000E+00  0.5200E+02
      8.857  0.4666E-11  0.5200E+02
      8.946  0.1858E-05  0.5200E+02
      9.036  0.2105E-02  0.5200E+02
      9.126  0.2150E-01  0.5200E+02
      9.216  0.7188E-01  0.5201E+02
      9.305  0.2996E+00  0.5204E+02
      9.395  0.7834E+00  0.5211E+02
      9.485  0.1519E+01  0.5224E+02
      9.575  0.1084E+01  0.5234E+02
      9.664  0.1125E+01  0.5244E+02
      9.754  0.2474E+01  0.5266E+02
      9.844  0.1646E+01  0.5281E+02
      9.934  0.1154E+01  0.5291E+02
     10.023  0.1624E+01  0.5306E+02
     10.113  0.3545E+01  0.5338E+02
     10.203  0.2504E+01  0.5360E+02
     10.292  0.2491E+01  0.5383E+02
     10.382  0.2839E+01  0.5408E+02
     10.472  0.4187E+01  0.5446E+02
     10.562  0.3787E+01  0.5480E+02
     10.651  0.3269E+01  0.5509E+02
     10.741  0.2942E+01  0.5535E+02
     10.831  0.3180E+01  0.5564E+02
     10.921  0.3751E+01  0.5598E+02
     11.010  0.4093E+01  0.5634E+02
     11.100  0.3846E+01  0.5669E+02
     11.190  0.3264E+01  0.5698E+02
     11.280  0.3190E+01  0.5727E+02
     11.369  0.3836E+01  0.5761E+02
     11.459  0.3862E+01  0.5796E+02
     11.549  0.4673E+01  0.5838E+02
     11.639  0.5583E+01  0.5888E+02
     11.728  0.3934E+01  0.5923E+02
     11.818  0.4067E+01  0.5960E+02
     11.908  0.4244E+01  0.5998E+02
     11.998  0.4183E+01  0.6035E+02
     12.087  0.3325E+01  0.6065E+02
     12.177  0.3253E+01  0.6094E+02
     12.267  0.3642E+01  0.6127E+02
     12.357  0.3011E+01  0.6154E+02
     12.446  0.3862E+01  0.6189E+02
     12.536  0.3649E+01  0.6221E+02
     12.626  0.2632E+01  0.6245E+02
     12.716  0.2932E+01  0.6271E+02
     12.805  0.4163E+01  0.6309E+02
     12.895  0.3066E+01  0.6336E+02
     12.985  0.2381E+01  0.6358E+02
     13.075  0.1438E+01  0.6370E+02
     13.164  0.1086E+01  0.6380E+02
     13.254  0.7459E+00  0.6387E+02
     13.344  0.1106E+01  0.6397E+02
     13.434  0.3284E+00  0.6400E+02
     13.523  0.1399E-01  0.6400E+02
     13.613  0.8645E-02  0.6400E+02
     13.703  0.5918E-03  0.6400E+02
     13.792  0.1823E-06  0.6400E+02
     13.882  0.1227E-12  0.6400E+02
     13.972  0.0000E+00  0.6400E+02
     14.062  0.0000E+00  0.6400E+02
     14.151  0.0000E+00  0.6400E+02
     14.241  0.0000E+00  0.6400E+02
     14.331  0.0000E+00  0.6400E+02
     14.421  0.0000E+00  0.6400E+02
     14.510  0.0000E+00  0.6400E+02
     14.600  0.0000E+00  0.6400E+02
     14.690  0.0000E+00  0.6400E+02
     14.780  0.0000E+00  0.6400E+02
