<?xml version="1.0" encoding="ISO-8859-1"?>
<modeling>
 <generator>
  <i name="program" type="string">vasp </i>
  <i name="version" type="string">5.3.5  </i>
  <i name="subversion" type="string">31Mar14 (build Mar 18 2017 11:34:20) complex                          parallel </i>
  <i name="platform" type="string">LinuxIFC </i>
  <i name="date" type="string">2018 05 04 </i>
  <i name="time" type="string">11:05:35 </i>
 </generator>
 <incar>
  <i type="string" name="SYSTEM"> MoS2</i>
  <i type="string" name="PREC">accurate</i>
  <i type="string" name="ALGO"> Fast</i>
  <i type="logical" name="ADDGRID"> T  </i>
  <i type="int" name="IBRION">    -1</i>
  <i name="EDIFF">      0.00000100</i>
  <i type="int" name="ISYM">     0</i>
  <i name="ENCUT">    600.00000000</i>
  <i type="logical" name="LREAL"> F  </i>
  <i type="int" name="ISMEAR">     0</i>
  <i name="SIGMA">      0.05000000</i>
  <i type="int" name="NWRITE">     1</i>
  <i type="logical" name="LWAVE"> F  </i>
  <i type="logical" name="LCHARG"> T  </i>
 </incar>
 <kpoints>
  <generation param="Gamma">
   <v type="int" name="divisions">      20       20       10 </v>
   <v name="usershift">      0.00000000       0.00000000       0.00000000 </v>
   <v name="genvec1">      0.05000000      -0.00000000       0.00000000 </v>
   <v name="genvec2">      0.00000000       0.05000000       0.00000000 </v>
   <v name="genvec3">      0.00000000       0.00000000       0.10000000 </v>
   <v name="shift">      0.00000000       0.00000000       0.00000000 </v>
  </generation>
  <varray name="kpointlist" >
   <v>       0.00000000       0.00000000       0.00000000 </v>
   <v>       0.05000000       0.00000000       0.00000000 </v>
   <v>       0.10000000       0.00000000       0.00000000 </v>
   <v>       0.15000000       0.00000000       0.00000000 </v>
   <v>       0.20000000       0.00000000       0.00000000 </v>
   <v>       0.25000000       0.00000000       0.00000000 </v>
   <v>       0.30000000       0.00000000       0.00000000 </v>
   <v>       0.35000000       0.00000000       0.00000000 </v>
   <v>       0.40000000       0.00000000       0.00000000 </v>
   <v>       0.45000000       0.00000000       0.00000000 </v>
   <v>       0.50000000       0.00000000       0.00000000 </v>
   <v>       0.00000000       0.05000000       0.00000000 </v>
   <v>       0.05000000       0.05000000       0.00000000 </v>
   <v>       0.10000000       0.05000000       0.00000000 </v>
   <v>       0.15000000       0.05000000       0.00000000 </v>
   <v>       0.20000000       0.05000000       0.00000000 </v>
   <v>       0.25000000       0.05000000       0.00000000 </v>
   <v>       0.30000000       0.05000000       0.00000000 </v>
   <v>       0.35000000       0.05000000       0.00000000 </v>
   <v>       0.40000000       0.05000000       0.00000000 </v>
   <v>       0.45000000       0.05000000       0.00000000 </v>
   <v>       0.50000000       0.05000000       0.00000000 </v>
   <v>      -0.45000000       0.05000000       0.00000000 </v>
   <v>      -0.40000000       0.05000000       0.00000000 </v>
   <v>      -0.35000000       0.05000000       0.00000000 </v>
   <v>      -0.30000000       0.05000000       0.00000000 </v>
   <v>      -0.25000000       0.05000000       0.00000000 </v>
   <v>      -0.20000000       0.05000000       0.00000000 </v>
   <v>      -0.15000000       0.05000000       0.00000000 </v>
   <v>      -0.10000000       0.05000000       0.00000000 </v>
   <v>      -0.05000000       0.05000000       0.00000000 </v>
   <v>       0.00000000       0.10000000       0.00000000 </v>
   <v>       0.05000000       0.10000000       0.00000000 </v>
   <v>       0.10000000       0.10000000       0.00000000 </v>
   <v>       0.15000000       0.10000000       0.00000000 </v>
   <v>       0.20000000       0.10000000       0.00000000 </v>
   <v>       0.25000000       0.10000000       0.00000000 </v>
   <v>       0.30000000       0.10000000       0.00000000 </v>
   <v>       0.35000000       0.10000000       0.00000000 </v>
   <v>       0.40000000       0.10000000       0.00000000 </v>
   <v>       0.45000000       0.10000000       0.00000000 </v>
   <v>       0.50000000       0.10000000       0.00000000 </v>
   <v>      -0.45000000       0.10000000       0.00000000 </v>
   <v>      -0.40000000       0.10000000       0.00000000 </v>
   <v>      -0.35000000       0.10000000       0.00000000 </v>
   <v>      -0.30000000       0.10000000       0.00000000 </v>
   <v>      -0.25000000       0.10000000       0.00000000 </v>
   <v>      -0.20000000       0.10000000       0.00000000 </v>
   <v>      -0.15000000       0.10000000       0.00000000 </v>
   <v>      -0.10000000       0.10000000       0.00000000 </v>
   <v>      -0.05000000       0.10000000       0.00000000 </v>
   <v>       0.00000000       0.15000000       0.00000000 </v>
   <v>       0.05000000       0.15000000       0.00000000 </v>
   <v>       0.10000000       0.15000000       0.00000000 </v>
   <v>       0.15000000       0.15000000       0.00000000 </v>
   <v>       0.20000000       0.15000000       0.00000000 </v>
   <v>       0.25000000       0.15000000       0.00000000 </v>
   <v>       0.30000000       0.15000000       0.00000000 </v>
   <v>       0.35000000       0.15000000       0.00000000 </v>
   <v>       0.40000000       0.15000000       0.00000000 </v>
   <v>       0.45000000       0.15000000       0.00000000 </v>
   <v>       0.50000000       0.15000000       0.00000000 </v>
   <v>      -0.45000000       0.15000000       0.00000000 </v>
   <v>      -0.40000000       0.15000000       0.00000000 </v>
   <v>      -0.35000000       0.15000000       0.00000000 </v>
   <v>      -0.30000000       0.15000000       0.00000000 </v>
   <v>      -0.25000000       0.15000000       0.00000000 </v>
   <v>      -0.20000000       0.15000000       0.00000000 </v>
   <v>      -0.15000000       0.15000000       0.00000000 </v>
   <v>      -0.10000000       0.15000000       0.00000000 </v>
   <v>      -0.05000000       0.15000000       0.00000000 </v>
   <v>       0.00000000       0.20000000       0.00000000 </v>
   <v>       0.05000000       0.20000000       0.00000000 </v>
   <v>       0.10000000       0.20000000       0.00000000 </v>
   <v>       0.15000000       0.20000000       0.00000000 </v>
   <v>       0.20000000       0.20000000       0.00000000 </v>
   <v>       0.25000000       0.20000000       0.00000000 </v>
   <v>       0.30000000       0.20000000       0.00000000 </v>
   <v>       0.35000000       0.20000000       0.00000000 </v>
   <v>       0.40000000       0.20000000       0.00000000 </v>
   <v>       0.45000000       0.20000000       0.00000000 </v>
   <v>       0.50000000       0.20000000       0.00000000 </v>
   <v>      -0.45000000       0.20000000       0.00000000 </v>
   <v>      -0.40000000       0.20000000       0.00000000 </v>
   <v>      -0.35000000       0.20000000       0.00000000 </v>
   <v>      -0.30000000       0.20000000       0.00000000 </v>
   <v>      -0.25000000       0.20000000       0.00000000 </v>
   <v>      -0.20000000       0.20000000       0.00000000 </v>
   <v>      -0.15000000       0.20000000       0.00000000 </v>
   <v>      -0.10000000       0.20000000       0.00000000 </v>
   <v>      -0.05000000       0.20000000       0.00000000 </v>
   <v>       0.00000000       0.25000000       0.00000000 </v>
   <v>       0.05000000       0.25000000       0.00000000 </v>
   <v>       0.10000000       0.25000000       0.00000000 </v>
   <v>       0.15000000       0.25000000       0.00000000 </v>
   <v>       0.20000000       0.25000000       0.00000000 </v>
   <v>       0.25000000       0.25000000       0.00000000 </v>
   <v>       0.30000000       0.25000000       0.00000000 </v>
   <v>       0.35000000       0.25000000       0.00000000 </v>
   <v>       0.40000000       0.25000000       0.00000000 </v>
   <v>       0.45000000       0.25000000       0.00000000 </v>
   <v>       0.50000000       0.25000000       0.00000000 </v>
   <v>      -0.45000000       0.25000000       0.00000000 </v>
   <v>      -0.40000000       0.25000000       0.00000000 </v>
   <v>      -0.35000000       0.25000000       0.00000000 </v>
   <v>      -0.30000000       0.25000000       0.00000000 </v>
   <v>      -0.25000000       0.25000000       0.00000000 </v>
   <v>      -0.20000000       0.25000000       0.00000000 </v>
   <v>      -0.15000000       0.25000000       0.00000000 </v>
   <v>      -0.10000000       0.25000000       0.00000000 </v>
   <v>      -0.05000000       0.25000000       0.00000000 </v>
   <v>       0.00000000       0.30000000       0.00000000 </v>
   <v>       0.05000000       0.30000000       0.00000000 </v>
   <v>       0.10000000       0.30000000       0.00000000 </v>
   <v>       0.15000000       0.30000000       0.00000000 </v>
   <v>       0.20000000       0.30000000       0.00000000 </v>
   <v>       0.25000000       0.30000000       0.00000000 </v>
   <v>       0.30000000       0.30000000       0.00000000 </v>
   <v>       0.35000000       0.30000000       0.00000000 </v>
   <v>       0.40000000       0.30000000       0.00000000 </v>
   <v>       0.45000000       0.30000000       0.00000000 </v>
   <v>       0.50000000       0.30000000       0.00000000 </v>
   <v>      -0.45000000       0.30000000       0.00000000 </v>
   <v>      -0.40000000       0.30000000       0.00000000 </v>
   <v>      -0.35000000       0.30000000       0.00000000 </v>
   <v>      -0.30000000       0.30000000       0.00000000 </v>
   <v>      -0.25000000       0.30000000       0.00000000 </v>
   <v>      -0.20000000       0.30000000       0.00000000 </v>
   <v>      -0.15000000       0.30000000       0.00000000 </v>
   <v>      -0.10000000       0.30000000       0.00000000 </v>
   <v>      -0.05000000       0.30000000       0.00000000 </v>
   <v>       0.00000000       0.35000000       0.00000000 </v>
   <v>       0.05000000       0.35000000       0.00000000 </v>
   <v>       0.10000000       0.35000000       0.00000000 </v>
   <v>       0.15000000       0.35000000       0.00000000 </v>
   <v>       0.20000000       0.35000000       0.00000000 </v>
   <v>       0.25000000       0.35000000       0.00000000 </v>
   <v>       0.30000000       0.35000000       0.00000000 </v>
   <v>       0.35000000       0.35000000       0.00000000 </v>
   <v>       0.40000000       0.35000000       0.00000000 </v>
   <v>       0.45000000       0.35000000       0.00000000 </v>
   <v>       0.50000000       0.35000000       0.00000000 </v>
   <v>      -0.45000000       0.35000000       0.00000000 </v>
   <v>      -0.40000000       0.35000000       0.00000000 </v>
   <v>      -0.35000000       0.35000000       0.00000000 </v>
   <v>      -0.30000000       0.35000000       0.00000000 </v>
   <v>      -0.25000000       0.35000000       0.00000000 </v>
   <v>      -0.20000000       0.35000000       0.00000000 </v>
   <v>      -0.15000000       0.35000000       0.00000000 </v>
   <v>      -0.10000000       0.35000000       0.00000000 </v>
   <v>      -0.05000000       0.35000000       0.00000000 </v>
   <v>       0.00000000       0.40000000       0.00000000 </v>
   <v>       0.05000000       0.40000000       0.00000000 </v>
   <v>       0.10000000       0.40000000       0.00000000 </v>
   <v>       0.15000000       0.40000000       0.00000000 </v>
   <v>       0.20000000       0.40000000       0.00000000 </v>
   <v>       0.25000000       0.40000000       0.00000000 </v>
   <v>       0.30000000       0.40000000       0.00000000 </v>
   <v>       0.35000000       0.40000000       0.00000000 </v>
   <v>       0.40000000       0.40000000       0.00000000 </v>
   <v>       0.45000000       0.40000000       0.00000000 </v>
   <v>       0.50000000       0.40000000       0.00000000 </v>
   <v>      -0.45000000       0.40000000       0.00000000 </v>
   <v>      -0.40000000       0.40000000       0.00000000 </v>
   <v>      -0.35000000       0.40000000       0.00000000 </v>
   <v>      -0.30000000       0.40000000       0.00000000 </v>
   <v>      -0.25000000       0.40000000       0.00000000 </v>
   <v>      -0.20000000       0.40000000       0.00000000 </v>
   <v>      -0.15000000       0.40000000       0.00000000 </v>
   <v>      -0.10000000       0.40000000       0.00000000 </v>
   <v>      -0.05000000       0.40000000       0.00000000 </v>
   <v>       0.00000000       0.45000000       0.00000000 </v>
   <v>       0.05000000       0.45000000       0.00000000 </v>
   <v>       0.10000000       0.45000000       0.00000000 </v>
   <v>       0.15000000       0.45000000       0.00000000 </v>
   <v>       0.20000000       0.45000000       0.00000000 </v>
   <v>       0.25000000       0.45000000       0.00000000 </v>
   <v>       0.30000000       0.45000000       0.00000000 </v>
   <v>       0.35000000       0.45000000       0.00000000 </v>
   <v>       0.40000000       0.45000000       0.00000000 </v>
   <v>       0.45000000       0.45000000       0.00000000 </v>
   <v>       0.50000000       0.45000000       0.00000000 </v>
   <v>      -0.45000000       0.45000000       0.00000000 </v>
   <v>      -0.40000000       0.45000000       0.00000000 </v>
   <v>      -0.35000000       0.45000000       0.00000000 </v>
   <v>      -0.30000000       0.45000000       0.00000000 </v>
   <v>      -0.25000000       0.45000000       0.00000000 </v>
   <v>      -0.20000000       0.45000000       0.00000000 </v>
   <v>      -0.15000000       0.45000000       0.00000000 </v>
   <v>      -0.10000000       0.45000000       0.00000000 </v>
   <v>      -0.05000000       0.45000000       0.00000000 </v>
   <v>       0.00000000       0.50000000       0.00000000 </v>
   <v>       0.05000000       0.50000000       0.00000000 </v>
   <v>       0.10000000       0.50000000       0.00000000 </v>
   <v>       0.15000000       0.50000000       0.00000000 </v>
   <v>       0.20000000       0.50000000       0.00000000 </v>
   <v>       0.25000000       0.50000000       0.00000000 </v>
   <v>       0.30000000       0.50000000       0.00000000 </v>
   <v>       0.35000000       0.50000000       0.00000000 </v>
   <v>       0.40000000       0.50000000       0.00000000 </v>
   <v>       0.45000000       0.50000000       0.00000000 </v>
   <v>       0.50000000       0.50000000       0.00000000 </v>
   <v>       0.00000000       0.00000000       0.10000000 </v>
   <v>       0.05000000       0.00000000       0.10000000 </v>
   <v>       0.10000000       0.00000000       0.10000000 </v>
   <v>       0.15000000       0.00000000       0.10000000 </v>
   <v>       0.20000000       0.00000000       0.10000000 </v>
   <v>       0.25000000       0.00000000       0.10000000 </v>
   <v>       0.30000000       0.00000000       0.10000000 </v>
   <v>       0.35000000       0.00000000       0.10000000 </v>
   <v>       0.40000000       0.00000000       0.10000000 </v>
   <v>       0.45000000       0.00000000       0.10000000 </v>
   <v>       0.50000000       0.00000000       0.10000000 </v>
   <v>      -0.45000000       0.00000000       0.10000000 </v>
   <v>      -0.40000000       0.00000000       0.10000000 </v>
   <v>      -0.35000000       0.00000000       0.10000000 </v>
   <v>      -0.30000000       0.00000000       0.10000000 </v>
   <v>      -0.25000000       0.00000000       0.10000000 </v>
   <v>      -0.20000000       0.00000000       0.10000000 </v>
   <v>      -0.15000000       0.00000000       0.10000000 </v>
   <v>      -0.10000000       0.00000000       0.10000000 </v>
   <v>      -0.05000000       0.00000000       0.10000000 </v>
   <v>       0.00000000       0.05000000       0.10000000 </v>
   <v>       0.05000000       0.05000000       0.10000000 </v>
   <v>       0.10000000       0.05000000       0.10000000 </v>
   <v>       0.15000000       0.05000000       0.10000000 </v>
   <v>       0.20000000       0.05000000       0.10000000 </v>
   <v>       0.25000000       0.05000000       0.10000000 </v>
   <v>       0.30000000       0.05000000       0.10000000 </v>
   <v>       0.35000000       0.05000000       0.10000000 </v>
   <v>       0.40000000       0.05000000       0.10000000 </v>
   <v>       0.45000000       0.05000000       0.10000000 </v>
   <v>       0.50000000       0.05000000       0.10000000 </v>
   <v>      -0.45000000       0.05000000       0.10000000 </v>
   <v>      -0.40000000       0.05000000       0.10000000 </v>
   <v>      -0.35000000       0.05000000       0.10000000 </v>
   <v>      -0.30000000       0.05000000       0.10000000 </v>
   <v>      -0.25000000       0.05000000       0.10000000 </v>
   <v>      -0.20000000       0.05000000       0.10000000 </v>
   <v>      -0.15000000       0.05000000       0.10000000 </v>
   <v>      -0.10000000       0.05000000       0.10000000 </v>
   <v>      -0.05000000       0.05000000       0.10000000 </v>
   <v>       0.00000000       0.10000000       0.10000000 </v>
   <v>       0.05000000       0.10000000       0.10000000 </v>
   <v>       0.10000000       0.10000000       0.10000000 </v>
   <v>       0.15000000       0.10000000       0.10000000 </v>
   <v>       0.20000000       0.10000000       0.10000000 </v>
   <v>       0.25000000       0.10000000       0.10000000 </v>
   <v>       0.30000000       0.10000000       0.10000000 </v>
   <v>       0.35000000       0.10000000       0.10000000 </v>
   <v>       0.40000000       0.10000000       0.10000000 </v>
   <v>       0.45000000       0.10000000       0.10000000 </v>
   <v>       0.50000000       0.10000000       0.10000000 </v>
   <v>      -0.45000000       0.10000000       0.10000000 </v>
   <v>      -0.40000000       0.10000000       0.10000000 </v>
   <v>      -0.35000000       0.10000000       0.10000000 </v>
   <v>      -0.30000000       0.10000000       0.10000000 </v>
   <v>      -0.25000000       0.10000000       0.10000000 </v>
   <v>      -0.20000000       0.10000000       0.10000000 </v>
   <v>      -0.15000000       0.10000000       0.10000000 </v>
   <v>      -0.10000000       0.10000000       0.10000000 </v>
   <v>      -0.05000000       0.10000000       0.10000000 </v>
   <v>       0.00000000       0.15000000       0.10000000 </v>
   <v>       0.05000000       0.15000000       0.10000000 </v>
   <v>       0.10000000       0.15000000       0.10000000 </v>
   <v>       0.15000000       0.15000000       0.10000000 </v>
   <v>       0.20000000       0.15000000       0.10000000 </v>
   <v>       0.25000000       0.15000000       0.10000000 </v>
   <v>       0.30000000       0.15000000       0.10000000 </v>
   <v>       0.35000000       0.15000000       0.10000000 </v>
   <v>       0.40000000       0.15000000       0.10000000 </v>
   <v>       0.45000000       0.15000000       0.10000000 </v>
   <v>       0.50000000       0.15000000       0.10000000 </v>
   <v>      -0.45000000       0.15000000       0.10000000 </v>
   <v>      -0.40000000       0.15000000       0.10000000 </v>
   <v>      -0.35000000       0.15000000       0.10000000 </v>
   <v>      -0.30000000       0.15000000       0.10000000 </v>
   <v>      -0.25000000       0.15000000       0.10000000 </v>
   <v>      -0.20000000       0.15000000       0.10000000 </v>
   <v>      -0.15000000       0.15000000       0.10000000 </v>
   <v>      -0.10000000       0.15000000       0.10000000 </v>
   <v>      -0.05000000       0.15000000       0.10000000 </v>
   <v>       0.00000000       0.20000000       0.10000000 </v>
   <v>       0.05000000       0.20000000       0.10000000 </v>
   <v>       0.10000000       0.20000000       0.10000000 </v>
   <v>       0.15000000       0.20000000       0.10000000 </v>
   <v>       0.20000000       0.20000000       0.10000000 </v>
   <v>       0.25000000       0.20000000       0.10000000 </v>
   <v>       0.30000000       0.20000000       0.10000000 </v>
   <v>       0.35000000       0.20000000       0.10000000 </v>
   <v>       0.40000000       0.20000000       0.10000000 </v>
   <v>       0.45000000       0.20000000       0.10000000 </v>
   <v>       0.50000000       0.20000000       0.10000000 </v>
   <v>      -0.45000000       0.20000000       0.10000000 </v>
   <v>      -0.40000000       0.20000000       0.10000000 </v>
   <v>      -0.35000000       0.20000000       0.10000000 </v>
   <v>      -0.30000000       0.20000000       0.10000000 </v>
   <v>      -0.25000000       0.20000000       0.10000000 </v>
   <v>      -0.20000000       0.20000000       0.10000000 </v>
   <v>      -0.15000000       0.20000000       0.10000000 </v>
   <v>      -0.10000000       0.20000000       0.10000000 </v>
   <v>      -0.05000000       0.20000000       0.10000000 </v>
   <v>       0.00000000       0.25000000       0.10000000 </v>
   <v>       0.05000000       0.25000000       0.10000000 </v>
   <v>       0.10000000       0.25000000       0.10000000 </v>
   <v>       0.15000000       0.25000000       0.10000000 </v>
   <v>       0.20000000       0.25000000       0.10000000 </v>
   <v>       0.25000000       0.25000000       0.10000000 </v>
   <v>       0.30000000       0.25000000       0.10000000 </v>
   <v>       0.35000000       0.25000000       0.10000000 </v>
   <v>       0.40000000       0.25000000       0.10000000 </v>
   <v>       0.45000000       0.25000000       0.10000000 </v>
   <v>       0.50000000       0.25000000       0.10000000 </v>
   <v>      -0.45000000       0.25000000       0.10000000 </v>
   <v>      -0.40000000       0.25000000       0.10000000 </v>
   <v>      -0.35000000       0.25000000       0.10000000 </v>
   <v>      -0.30000000       0.25000000       0.10000000 </v>
   <v>      -0.25000000       0.25000000       0.10000000 </v>
   <v>      -0.20000000       0.25000000       0.10000000 </v>
   <v>      -0.15000000       0.25000000       0.10000000 </v>
   <v>      -0.10000000       0.25000000       0.10000000 </v>
   <v>      -0.05000000       0.25000000       0.10000000 </v>
   <v>       0.00000000       0.30000000       0.10000000 </v>
   <v>       0.05000000       0.30000000       0.10000000 </v>
   <v>       0.10000000       0.30000000       0.10000000 </v>
   <v>       0.15000000       0.30000000       0.10000000 </v>
   <v>       0.20000000       0.30000000       0.10000000 </v>
   <v>       0.25000000       0.30000000       0.10000000 </v>
   <v>       0.30000000       0.30000000       0.10000000 </v>
   <v>       0.35000000       0.30000000       0.10000000 </v>
   <v>       0.40000000       0.30000000       0.10000000 </v>
   <v>       0.45000000       0.30000000       0.10000000 </v>
   <v>       0.50000000       0.30000000       0.10000000 </v>
   <v>      -0.45000000       0.30000000       0.10000000 </v>
   <v>      -0.40000000       0.30000000       0.10000000 </v>
   <v>      -0.35000000       0.30000000       0.10000000 </v>
   <v>      -0.30000000       0.30000000       0.10000000 </v>
   <v>      -0.25000000       0.30000000       0.10000000 </v>
   <v>      -0.20000000       0.30000000       0.10000000 </v>
   <v>      -0.15000000       0.30000000       0.10000000 </v>
   <v>      -0.10000000       0.30000000       0.10000000 </v>
   <v>      -0.05000000       0.30000000       0.10000000 </v>
   <v>       0.00000000       0.35000000       0.10000000 </v>
   <v>       0.05000000       0.35000000       0.10000000 </v>
   <v>       0.10000000       0.35000000       0.10000000 </v>
   <v>       0.15000000       0.35000000       0.10000000 </v>
   <v>       0.20000000       0.35000000       0.10000000 </v>
   <v>       0.25000000       0.35000000       0.10000000 </v>
   <v>       0.30000000       0.35000000       0.10000000 </v>
   <v>       0.35000000       0.35000000       0.10000000 </v>
   <v>       0.40000000       0.35000000       0.10000000 </v>
   <v>       0.45000000       0.35000000       0.10000000 </v>
   <v>       0.50000000       0.35000000       0.10000000 </v>
   <v>      -0.45000000       0.35000000       0.10000000 </v>
   <v>      -0.40000000       0.35000000       0.10000000 </v>
   <v>      -0.35000000       0.35000000       0.10000000 </v>
   <v>      -0.30000000       0.35000000       0.10000000 </v>
   <v>      -0.25000000       0.35000000       0.10000000 </v>
   <v>      -0.20000000       0.35000000       0.10000000 </v>
   <v>      -0.15000000       0.35000000       0.10000000 </v>
   <v>      -0.10000000       0.35000000       0.10000000 </v>
   <v>      -0.05000000       0.35000000       0.10000000 </v>
   <v>       0.00000000       0.40000000       0.10000000 </v>
   <v>       0.05000000       0.40000000       0.10000000 </v>
   <v>       0.10000000       0.40000000       0.10000000 </v>
   <v>       0.15000000       0.40000000       0.10000000 </v>
   <v>       0.20000000       0.40000000       0.10000000 </v>
   <v>       0.25000000       0.40000000       0.10000000 </v>
   <v>       0.30000000       0.40000000       0.10000000 </v>
   <v>       0.35000000       0.40000000       0.10000000 </v>
   <v>       0.40000000       0.40000000       0.10000000 </v>
   <v>       0.45000000       0.40000000       0.10000000 </v>
   <v>       0.50000000       0.40000000       0.10000000 </v>
   <v>      -0.45000000       0.40000000       0.10000000 </v>
   <v>      -0.40000000       0.40000000       0.10000000 </v>
   <v>      -0.35000000       0.40000000       0.10000000 </v>
   <v>      -0.30000000       0.40000000       0.10000000 </v>
   <v>      -0.25000000       0.40000000       0.10000000 </v>
   <v>      -0.20000000       0.40000000       0.10000000 </v>
   <v>      -0.15000000       0.40000000       0.10000000 </v>
   <v>      -0.10000000       0.40000000       0.10000000 </v>
   <v>      -0.05000000       0.40000000       0.10000000 </v>
   <v>       0.00000000       0.45000000       0.10000000 </v>
   <v>       0.05000000       0.45000000       0.10000000 </v>
   <v>       0.10000000       0.45000000       0.10000000 </v>
   <v>       0.15000000       0.45000000       0.10000000 </v>
   <v>       0.20000000       0.45000000       0.10000000 </v>
   <v>       0.25000000       0.45000000       0.10000000 </v>
   <v>       0.30000000       0.45000000       0.10000000 </v>
   <v>       0.35000000       0.45000000       0.10000000 </v>
   <v>       0.40000000       0.45000000       0.10000000 </v>
   <v>       0.45000000       0.45000000       0.10000000 </v>
   <v>       0.50000000       0.45000000       0.10000000 </v>
   <v>      -0.45000000       0.45000000       0.10000000 </v>
   <v>      -0.40000000       0.45000000       0.10000000 </v>
   <v>      -0.35000000       0.45000000       0.10000000 </v>
   <v>      -0.30000000       0.45000000       0.10000000 </v>
   <v>      -0.25000000       0.45000000       0.10000000 </v>
   <v>      -0.20000000       0.45000000       0.10000000 </v>
   <v>      -0.15000000       0.45000000       0.10000000 </v>
   <v>      -0.10000000       0.45000000       0.10000000 </v>
   <v>      -0.05000000       0.45000000       0.10000000 </v>
   <v>       0.00000000       0.50000000       0.10000000 </v>
   <v>       0.05000000       0.50000000       0.10000000 </v>
   <v>       0.10000000       0.50000000       0.10000000 </v>
   <v>       0.15000000       0.50000000       0.10000000 </v>
   <v>       0.20000000       0.50000000       0.10000000 </v>
   <v>       0.25000000       0.50000000       0.10000000 </v>
   <v>       0.30000000       0.50000000       0.10000000 </v>
   <v>       0.35000000       0.50000000       0.10000000 </v>
   <v>       0.40000000       0.50000000       0.10000000 </v>
   <v>       0.45000000       0.50000000       0.10000000 </v>
   <v>       0.50000000       0.50000000       0.10000000 </v>
   <v>      -0.45000000       0.50000000       0.10000000 </v>
   <v>      -0.40000000       0.50000000       0.10000000 </v>
   <v>      -0.35000000       0.50000000       0.10000000 </v>
   <v>      -0.30000000       0.50000000       0.10000000 </v>
   <v>      -0.25000000       0.50000000       0.10000000 </v>
   <v>      -0.20000000       0.50000000       0.10000000 </v>
   <v>      -0.15000000       0.50000000       0.10000000 </v>
   <v>      -0.10000000       0.50000000       0.10000000 </v>
   <v>      -0.05000000       0.50000000       0.10000000 </v>
   <v>       0.00000000      -0.45000000       0.10000000 </v>
   <v>       0.05000000      -0.45000000       0.10000000 </v>
   <v>       0.10000000      -0.45000000       0.10000000 </v>
   <v>       0.15000000      -0.45000000       0.10000000 </v>
   <v>       0.20000000      -0.45000000       0.10000000 </v>
   <v>       0.25000000      -0.45000000       0.10000000 </v>
   <v>       0.30000000      -0.45000000       0.10000000 </v>
   <v>       0.35000000      -0.45000000       0.10000000 </v>
   <v>       0.40000000      -0.45000000       0.10000000 </v>
   <v>       0.45000000      -0.45000000       0.10000000 </v>
   <v>       0.50000000      -0.45000000       0.10000000 </v>
   <v>      -0.45000000      -0.45000000       0.10000000 </v>
   <v>      -0.40000000      -0.45000000       0.10000000 </v>
   <v>      -0.35000000      -0.45000000       0.10000000 </v>
   <v>      -0.30000000      -0.45000000       0.10000000 </v>
   <v>      -0.25000000      -0.45000000       0.10000000 </v>
   <v>      -0.20000000      -0.45000000       0.10000000 </v>
   <v>      -0.15000000      -0.45000000       0.10000000 </v>
   <v>      -0.10000000      -0.45000000       0.10000000 </v>
   <v>      -0.05000000      -0.45000000       0.10000000 </v>
   <v>       0.00000000      -0.40000000       0.10000000 </v>
   <v>       0.05000000      -0.40000000       0.10000000 </v>
   <v>       0.10000000      -0.40000000       0.10000000 </v>
   <v>       0.15000000      -0.40000000       0.10000000 </v>
   <v>       0.20000000      -0.40000000       0.10000000 </v>
   <v>       0.25000000      -0.40000000       0.10000000 </v>
   <v>       0.30000000      -0.40000000       0.10000000 </v>
   <v>       0.35000000      -0.40000000       0.10000000 </v>
   <v>       0.40000000      -0.40000000       0.10000000 </v>
   <v>       0.45000000      -0.40000000       0.10000000 </v>
   <v>       0.50000000      -0.40000000       0.10000000 </v>
   <v>      -0.45000000      -0.40000000       0.10000000 </v>
   <v>      -0.40000000      -0.40000000       0.10000000 </v>
   <v>      -0.35000000      -0.40000000       0.10000000 </v>
   <v>      -0.30000000      -0.40000000       0.10000000 </v>
   <v>      -0.25000000      -0.40000000       0.10000000 </v>
   <v>      -0.20000000      -0.40000000       0.10000000 </v>
   <v>      -0.15000000      -0.40000000       0.10000000 </v>
   <v>      -0.10000000      -0.40000000       0.10000000 </v>
   <v>      -0.05000000      -0.40000000       0.10000000 </v>
   <v>       0.00000000      -0.35000000       0.10000000 </v>
   <v>       0.05000000      -0.35000000       0.10000000 </v>
   <v>       0.10000000      -0.35000000       0.10000000 </v>
   <v>       0.15000000      -0.35000000       0.10000000 </v>
   <v>       0.20000000      -0.35000000       0.10000000 </v>
   <v>       0.25000000      -0.35000000       0.10000000 </v>
   <v>       0.30000000      -0.35000000       0.10000000 </v>
   <v>       0.35000000      -0.35000000       0.10000000 </v>
   <v>       0.40000000      -0.35000000       0.10000000 </v>
   <v>       0.45000000      -0.35000000       0.10000000 </v>
   <v>       0.50000000      -0.35000000       0.10000000 </v>
   <v>      -0.45000000      -0.35000000       0.10000000 </v>
   <v>      -0.40000000      -0.35000000       0.10000000 </v>
   <v>      -0.35000000      -0.35000000       0.10000000 </v>
   <v>      -0.30000000      -0.35000000       0.10000000 </v>
   <v>      -0.25000000      -0.35000000       0.10000000 </v>
   <v>      -0.20000000      -0.35000000       0.10000000 </v>
   <v>      -0.15000000      -0.35000000       0.10000000 </v>
   <v>      -0.10000000      -0.35000000       0.10000000 </v>
   <v>      -0.05000000      -0.35000000       0.10000000 </v>
   <v>       0.00000000      -0.30000000       0.10000000 </v>
   <v>       0.05000000      -0.30000000       0.10000000 </v>
   <v>       0.10000000      -0.30000000       0.10000000 </v>
   <v>       0.15000000      -0.30000000       0.10000000 </v>
   <v>       0.20000000      -0.30000000       0.10000000 </v>
   <v>       0.25000000      -0.30000000       0.10000000 </v>
   <v>       0.30000000      -0.30000000       0.10000000 </v>
   <v>       0.35000000      -0.30000000       0.10000000 </v>
   <v>       0.40000000      -0.30000000       0.10000000 </v>
   <v>       0.45000000      -0.30000000       0.10000000 </v>
   <v>       0.50000000      -0.30000000       0.10000000 </v>
   <v>      -0.45000000      -0.30000000       0.10000000 </v>
   <v>      -0.40000000      -0.30000000       0.10000000 </v>
   <v>      -0.35000000      -0.30000000       0.10000000 </v>
   <v>      -0.30000000      -0.30000000       0.10000000 </v>
   <v>      -0.25000000      -0.30000000       0.10000000 </v>
   <v>      -0.20000000      -0.30000000       0.10000000 </v>
   <v>      -0.15000000      -0.30000000       0.10000000 </v>
   <v>      -0.10000000      -0.30000000       0.10000000 </v>
   <v>      -0.05000000      -0.30000000       0.10000000 </v>
   <v>       0.00000000      -0.25000000       0.10000000 </v>
   <v>       0.05000000      -0.25000000       0.10000000 </v>
   <v>       0.10000000      -0.25000000       0.10000000 </v>
   <v>       0.15000000      -0.25000000       0.10000000 </v>
   <v>       0.20000000      -0.25000000       0.10000000 </v>
   <v>       0.25000000      -0.25000000       0.10000000 </v>
   <v>       0.30000000      -0.25000000       0.10000000 </v>
   <v>       0.35000000      -0.25000000       0.10000000 </v>
   <v>       0.40000000      -0.25000000       0.10000000 </v>
   <v>       0.45000000      -0.25000000       0.10000000 </v>
   <v>       0.50000000      -0.25000000       0.10000000 </v>
   <v>      -0.45000000      -0.25000000       0.10000000 </v>
   <v>      -0.40000000      -0.25000000       0.10000000 </v>
   <v>      -0.35000000      -0.25000000       0.10000000 </v>
   <v>      -0.30000000      -0.25000000       0.10000000 </v>
   <v>      -0.25000000      -0.25000000       0.10000000 </v>
   <v>      -0.20000000      -0.25000000       0.10000000 </v>
   <v>      -0.15000000      -0.25000000       0.10000000 </v>
   <v>      -0.10000000      -0.25000000       0.10000000 </v>
   <v>      -0.05000000      -0.25000000       0.10000000 </v>
   <v>       0.00000000      -0.20000000       0.10000000 </v>
   <v>       0.05000000      -0.20000000       0.10000000 </v>
   <v>       0.10000000      -0.20000000       0.10000000 </v>
   <v>       0.15000000      -0.20000000       0.10000000 </v>
   <v>       0.20000000      -0.20000000       0.10000000 </v>
   <v>       0.25000000      -0.20000000       0.10000000 </v>
   <v>       0.30000000      -0.20000000       0.10000000 </v>
   <v>       0.35000000      -0.20000000       0.10000000 </v>
   <v>       0.40000000      -0.20000000       0.10000000 </v>
   <v>       0.45000000      -0.20000000       0.10000000 </v>
   <v>       0.50000000      -0.20000000       0.10000000 </v>
   <v>      -0.45000000      -0.20000000       0.10000000 </v>
   <v>      -0.40000000      -0.20000000       0.10000000 </v>
   <v>      -0.35000000      -0.20000000       0.10000000 </v>
   <v>      -0.30000000      -0.20000000       0.10000000 </v>
   <v>      -0.25000000      -0.20000000       0.10000000 </v>
   <v>      -0.20000000      -0.20000000       0.10000000 </v>
   <v>      -0.15000000      -0.20000000       0.10000000 </v>
   <v>      -0.10000000      -0.20000000       0.10000000 </v>
   <v>      -0.05000000      -0.20000000       0.10000000 </v>
   <v>       0.00000000      -0.15000000       0.10000000 </v>
   <v>       0.05000000      -0.15000000       0.10000000 </v>
   <v>       0.10000000      -0.15000000       0.10000000 </v>
   <v>       0.15000000      -0.15000000       0.10000000 </v>
   <v>       0.20000000      -0.15000000       0.10000000 </v>
   <v>       0.25000000      -0.15000000       0.10000000 </v>
   <v>       0.30000000      -0.15000000       0.10000000 </v>
   <v>       0.35000000      -0.15000000       0.10000000 </v>
   <v>       0.40000000      -0.15000000       0.10000000 </v>
   <v>       0.45000000      -0.15000000       0.10000000 </v>
   <v>       0.50000000      -0.15000000       0.10000000 </v>
   <v>      -0.45000000      -0.15000000       0.10000000 </v>
   <v>      -0.40000000      -0.15000000       0.10000000 </v>
   <v>      -0.35000000      -0.15000000       0.10000000 </v>
   <v>      -0.30000000      -0.15000000       0.10000000 </v>
   <v>      -0.25000000      -0.15000000       0.10000000 </v>
   <v>      -0.20000000      -0.15000000       0.10000000 </v>
   <v>      -0.15000000      -0.15000000       0.10000000 </v>
   <v>      -0.10000000      -0.15000000       0.10000000 </v>
   <v>      -0.05000000      -0.15000000       0.10000000 </v>
   <v>       0.00000000      -0.10000000       0.10000000 </v>
   <v>       0.05000000      -0.10000000       0.10000000 </v>
   <v>       0.10000000      -0.10000000       0.10000000 </v>
   <v>       0.15000000      -0.10000000       0.10000000 </v>
   <v>       0.20000000      -0.10000000       0.10000000 </v>
   <v>       0.25000000      -0.10000000       0.10000000 </v>
   <v>       0.30000000      -0.10000000       0.10000000 </v>
   <v>       0.35000000      -0.10000000       0.10000000 </v>
   <v>       0.40000000      -0.10000000       0.10000000 </v>
   <v>       0.45000000      -0.10000000       0.10000000 </v>
   <v>       0.50000000      -0.10000000       0.10000000 </v>
   <v>      -0.45000000      -0.10000000       0.10000000 </v>
   <v>      -0.40000000      -0.10000000       0.10000000 </v>
   <v>      -0.35000000      -0.10000000       0.10000000 </v>
   <v>      -0.30000000      -0.10000000       0.10000000 </v>
   <v>      -0.25000000      -0.10000000       0.10000000 </v>
   <v>      -0.20000000      -0.10000000       0.10000000 </v>
   <v>      -0.15000000      -0.10000000       0.10000000 </v>
   <v>      -0.10000000      -0.10000000       0.10000000 </v>
   <v>      -0.05000000      -0.10000000       0.10000000 </v>
   <v>       0.00000000      -0.05000000       0.10000000 </v>
   <v>       0.05000000      -0.05000000       0.10000000 </v>
   <v>       0.10000000      -0.05000000       0.10000000 </v>
   <v>       0.15000000      -0.05000000       0.10000000 </v>
   <v>       0.20000000      -0.05000000       0.10000000 </v>
   <v>       0.25000000      -0.05000000       0.10000000 </v>
   <v>       0.30000000      -0.05000000       0.10000000 </v>
   <v>       0.35000000      -0.05000000       0.10000000 </v>
   <v>       0.40000000      -0.05000000       0.10000000 </v>
   <v>       0.45000000      -0.05000000       0.10000000 </v>
   <v>       0.50000000      -0.05000000       0.10000000 </v>
   <v>      -0.45000000      -0.05000000       0.10000000 </v>
   <v>      -0.40000000      -0.05000000       0.10000000 </v>
   <v>      -0.35000000      -0.05000000       0.10000000 </v>
   <v>      -0.30000000      -0.05000000       0.10000000 </v>
   <v>      -0.25000000      -0.05000000       0.10000000 </v>
   <v>      -0.20000000      -0.05000000       0.10000000 </v>
   <v>      -0.15000000      -0.05000000       0.10000000 </v>
   <v>      -0.10000000      -0.05000000       0.10000000 </v>
   <v>      -0.05000000      -0.05000000       0.10000000 </v>
   <v>       0.00000000       0.00000000       0.20000000 </v>
   <v>       0.05000000       0.00000000       0.20000000 </v>
   <v>       0.10000000       0.00000000       0.20000000 </v>
   <v>       0.15000000       0.00000000       0.20000000 </v>
   <v>       0.20000000       0.00000000       0.20000000 </v>
   <v>       0.25000000       0.00000000       0.20000000 </v>
   <v>       0.30000000       0.00000000       0.20000000 </v>
   <v>       0.35000000       0.00000000       0.20000000 </v>
   <v>       0.40000000       0.00000000       0.20000000 </v>
   <v>       0.45000000       0.00000000       0.20000000 </v>
   <v>       0.50000000       0.00000000       0.20000000 </v>
   <v>      -0.45000000       0.00000000       0.20000000 </v>
   <v>      -0.40000000       0.00000000       0.20000000 </v>
   <v>      -0.35000000       0.00000000       0.20000000 </v>
   <v>      -0.30000000       0.00000000       0.20000000 </v>
   <v>      -0.25000000       0.00000000       0.20000000 </v>
   <v>      -0.20000000       0.00000000       0.20000000 </v>
   <v>      -0.15000000       0.00000000       0.20000000 </v>
   <v>      -0.10000000       0.00000000       0.20000000 </v>
   <v>      -0.05000000       0.00000000       0.20000000 </v>
   <v>       0.00000000       0.05000000       0.20000000 </v>
   <v>       0.05000000       0.05000000       0.20000000 </v>
   <v>       0.10000000       0.05000000       0.20000000 </v>
   <v>       0.15000000       0.05000000       0.20000000 </v>
   <v>       0.20000000       0.05000000       0.20000000 </v>
   <v>       0.25000000       0.05000000       0.20000000 </v>
   <v>       0.30000000       0.05000000       0.20000000 </v>
   <v>       0.35000000       0.05000000       0.20000000 </v>
   <v>       0.40000000       0.05000000       0.20000000 </v>
   <v>       0.45000000       0.05000000       0.20000000 </v>
   <v>       0.50000000       0.05000000       0.20000000 </v>
   <v>      -0.45000000       0.05000000       0.20000000 </v>
   <v>      -0.40000000       0.05000000       0.20000000 </v>
   <v>      -0.35000000       0.05000000       0.20000000 </v>
   <v>      -0.30000000       0.05000000       0.20000000 </v>
   <v>      -0.25000000       0.05000000       0.20000000 </v>
   <v>      -0.20000000       0.05000000       0.20000000 </v>
   <v>      -0.15000000       0.05000000       0.20000000 </v>
   <v>      -0.10000000       0.05000000       0.20000000 </v>
   <v>      -0.05000000       0.05000000       0.20000000 </v>
   <v>       0.00000000       0.10000000       0.20000000 </v>
   <v>       0.05000000       0.10000000       0.20000000 </v>
   <v>       0.10000000       0.10000000       0.20000000 </v>
   <v>       0.15000000       0.10000000       0.20000000 </v>
   <v>       0.20000000       0.10000000       0.20000000 </v>
   <v>       0.25000000       0.10000000       0.20000000 </v>
   <v>       0.30000000       0.10000000       0.20000000 </v>
   <v>       0.35000000       0.10000000       0.20000000 </v>
   <v>       0.40000000       0.10000000       0.20000000 </v>
   <v>       0.45000000       0.10000000       0.20000000 </v>
   <v>       0.50000000       0.10000000       0.20000000 </v>
   <v>      -0.45000000       0.10000000       0.20000000 </v>
   <v>      -0.40000000       0.10000000       0.20000000 </v>
   <v>      -0.35000000       0.10000000       0.20000000 </v>
   <v>      -0.30000000       0.10000000       0.20000000 </v>
   <v>      -0.25000000       0.10000000       0.20000000 </v>
   <v>      -0.20000000       0.10000000       0.20000000 </v>
   <v>      -0.15000000       0.10000000       0.20000000 </v>
   <v>      -0.10000000       0.10000000       0.20000000 </v>
   <v>      -0.05000000       0.10000000       0.20000000 </v>
   <v>       0.00000000       0.15000000       0.20000000 </v>
   <v>       0.05000000       0.15000000       0.20000000 </v>
   <v>       0.10000000       0.15000000       0.20000000 </v>
   <v>       0.15000000       0.15000000       0.20000000 </v>
   <v>       0.20000000       0.15000000       0.20000000 </v>
   <v>       0.25000000       0.15000000       0.20000000 </v>
   <v>       0.30000000       0.15000000       0.20000000 </v>
   <v>       0.35000000       0.15000000       0.20000000 </v>
   <v>       0.40000000       0.15000000       0.20000000 </v>
   <v>       0.45000000       0.15000000       0.20000000 </v>
   <v>       0.50000000       0.15000000       0.20000000 </v>
   <v>      -0.45000000       0.15000000       0.20000000 </v>
   <v>      -0.40000000       0.15000000       0.20000000 </v>
   <v>      -0.35000000       0.15000000       0.20000000 </v>
   <v>      -0.30000000       0.15000000       0.20000000 </v>
   <v>      -0.25000000       0.15000000       0.20000000 </v>
   <v>      -0.20000000       0.15000000       0.20000000 </v>
   <v>      -0.15000000       0.15000000       0.20000000 </v>
   <v>      -0.10000000       0.15000000       0.20000000 </v>
   <v>      -0.05000000       0.15000000       0.20000000 </v>
   <v>       0.00000000       0.20000000       0.20000000 </v>
   <v>       0.05000000       0.20000000       0.20000000 </v>
   <v>       0.10000000       0.20000000       0.20000000 </v>
   <v>       0.15000000       0.20000000       0.20000000 </v>
   <v>       0.20000000       0.20000000       0.20000000 </v>
   <v>       0.25000000       0.20000000       0.20000000 </v>
   <v>       0.30000000       0.20000000       0.20000000 </v>
   <v>       0.35000000       0.20000000       0.20000000 </v>
   <v>       0.40000000       0.20000000       0.20000000 </v>
   <v>       0.45000000       0.20000000       0.20000000 </v>
   <v>       0.50000000       0.20000000       0.20000000 </v>
   <v>      -0.45000000       0.20000000       0.20000000 </v>
   <v>      -0.40000000       0.20000000       0.20000000 </v>
   <v>      -0.35000000       0.20000000       0.20000000 </v>
   <v>      -0.30000000       0.20000000       0.20000000 </v>
   <v>      -0.25000000       0.20000000       0.20000000 </v>
   <v>      -0.20000000       0.20000000       0.20000000 </v>
   <v>      -0.15000000       0.20000000       0.20000000 </v>
   <v>      -0.10000000       0.20000000       0.20000000 </v>
   <v>      -0.05000000       0.20000000       0.20000000 </v>
   <v>       0.00000000       0.25000000       0.20000000 </v>
   <v>       0.05000000       0.25000000       0.20000000 </v>
   <v>       0.10000000       0.25000000       0.20000000 </v>
   <v>       0.15000000       0.25000000       0.20000000 </v>
   <v>       0.20000000       0.25000000       0.20000000 </v>
   <v>       0.25000000       0.25000000       0.20000000 </v>
   <v>       0.30000000       0.25000000       0.20000000 </v>
   <v>       0.35000000       0.25000000       0.20000000 </v>
   <v>       0.40000000       0.25000000       0.20000000 </v>
   <v>       0.45000000       0.25000000       0.20000000 </v>
   <v>       0.50000000       0.25000000       0.20000000 </v>
   <v>      -0.45000000       0.25000000       0.20000000 </v>
   <v>      -0.40000000       0.25000000       0.20000000 </v>
   <v>      -0.35000000       0.25000000       0.20000000 </v>
   <v>      -0.30000000       0.25000000       0.20000000 </v>
   <v>      -0.25000000       0.25000000       0.20000000 </v>
   <v>      -0.20000000       0.25000000       0.20000000 </v>
   <v>      -0.15000000       0.25000000       0.20000000 </v>
   <v>      -0.10000000       0.25000000       0.20000000 </v>
   <v>      -0.05000000       0.25000000       0.20000000 </v>
   <v>       0.00000000       0.30000000       0.20000000 </v>
   <v>       0.05000000       0.30000000       0.20000000 </v>
   <v>       0.10000000       0.30000000       0.20000000 </v>
   <v>       0.15000000       0.30000000       0.20000000 </v>
   <v>       0.20000000       0.30000000       0.20000000 </v>
   <v>       0.25000000       0.30000000       0.20000000 </v>
   <v>       0.30000000       0.30000000       0.20000000 </v>
   <v>       0.35000000       0.30000000       0.20000000 </v>
   <v>       0.40000000       0.30000000       0.20000000 </v>
   <v>       0.45000000       0.30000000       0.20000000 </v>
   <v>       0.50000000       0.30000000       0.20000000 </v>
   <v>      -0.45000000       0.30000000       0.20000000 </v>
   <v>      -0.40000000       0.30000000       0.20000000 </v>
   <v>      -0.35000000       0.30000000       0.20000000 </v>
   <v>      -0.30000000       0.30000000       0.20000000 </v>
   <v>      -0.25000000       0.30000000       0.20000000 </v>
   <v>      -0.20000000       0.30000000       0.20000000 </v>
   <v>      -0.15000000       0.30000000       0.20000000 </v>
   <v>      -0.10000000       0.30000000       0.20000000 </v>
   <v>      -0.05000000       0.30000000       0.20000000 </v>
   <v>       0.00000000       0.35000000       0.20000000 </v>
   <v>       0.05000000       0.35000000       0.20000000 </v>
   <v>       0.10000000       0.35000000       0.20000000 </v>
   <v>       0.15000000       0.35000000       0.20000000 </v>
   <v>       0.20000000       0.35000000       0.20000000 </v>
   <v>       0.25000000       0.35000000       0.20000000 </v>
   <v>       0.30000000       0.35000000       0.20000000 </v>
   <v>       0.35000000       0.35000000       0.20000000 </v>
   <v>       0.40000000       0.35000000       0.20000000 </v>
   <v>       0.45000000       0.35000000       0.20000000 </v>
   <v>       0.50000000       0.35000000       0.20000000 </v>
   <v>      -0.45000000       0.35000000       0.20000000 </v>
   <v>      -0.40000000       0.35000000       0.20000000 </v>
   <v>      -0.35000000       0.35000000       0.20000000 </v>
   <v>      -0.30000000       0.35000000       0.20000000 </v>
   <v>      -0.25000000       0.35000000       0.20000000 </v>
   <v>      -0.20000000       0.35000000       0.20000000 </v>
   <v>      -0.15000000       0.35000000       0.20000000 </v>
   <v>      -0.10000000       0.35000000       0.20000000 </v>
   <v>      -0.05000000       0.35000000       0.20000000 </v>
   <v>       0.00000000       0.40000000       0.20000000 </v>
   <v>       0.05000000       0.40000000       0.20000000 </v>
   <v>       0.10000000       0.40000000       0.20000000 </v>
   <v>       0.15000000       0.40000000       0.20000000 </v>
   <v>       0.20000000       0.40000000       0.20000000 </v>
   <v>       0.25000000       0.40000000       0.20000000 </v>
   <v>       0.30000000       0.40000000       0.20000000 </v>
   <v>       0.35000000       0.40000000       0.20000000 </v>
   <v>       0.40000000       0.40000000       0.20000000 </v>
   <v>       0.45000000       0.40000000       0.20000000 </v>
   <v>       0.50000000       0.40000000       0.20000000 </v>
   <v>      -0.45000000       0.40000000       0.20000000 </v>
   <v>      -0.40000000       0.40000000       0.20000000 </v>
   <v>      -0.35000000       0.40000000       0.20000000 </v>
   <v>      -0.30000000       0.40000000       0.20000000 </v>
   <v>      -0.25000000       0.40000000       0.20000000 </v>
   <v>      -0.20000000       0.40000000       0.20000000 </v>
   <v>      -0.15000000       0.40000000       0.20000000 </v>
   <v>      -0.10000000       0.40000000       0.20000000 </v>
   <v>      -0.05000000       0.40000000       0.20000000 </v>
   <v>       0.00000000       0.45000000       0.20000000 </v>
   <v>       0.05000000       0.45000000       0.20000000 </v>
   <v>       0.10000000       0.45000000       0.20000000 </v>
   <v>       0.15000000       0.45000000       0.20000000 </v>
   <v>       0.20000000       0.45000000       0.20000000 </v>
   <v>       0.25000000       0.45000000       0.20000000 </v>
   <v>       0.30000000       0.45000000       0.20000000 </v>
   <v>       0.35000000       0.45000000       0.20000000 </v>
   <v>       0.40000000       0.45000000       0.20000000 </v>
   <v>       0.45000000       0.45000000       0.20000000 </v>
   <v>       0.50000000       0.45000000       0.20000000 </v>
   <v>      -0.45000000       0.45000000       0.20000000 </v>
   <v>      -0.40000000       0.45000000       0.20000000 </v>
   <v>      -0.35000000       0.45000000       0.20000000 </v>
   <v>      -0.30000000       0.45000000       0.20000000 </v>
   <v>      -0.25000000       0.45000000       0.20000000 </v>
   <v>      -0.20000000       0.45000000       0.20000000 </v>
   <v>      -0.15000000       0.45000000       0.20000000 </v>
   <v>      -0.10000000       0.45000000       0.20000000 </v>
   <v>      -0.05000000       0.45000000       0.20000000 </v>
   <v>       0.00000000       0.50000000       0.20000000 </v>
   <v>       0.05000000       0.50000000       0.20000000 </v>
   <v>       0.10000000       0.50000000       0.20000000 </v>
   <v>       0.15000000       0.50000000       0.20000000 </v>
   <v>       0.20000000       0.50000000       0.20000000 </v>
   <v>       0.25000000       0.50000000       0.20000000 </v>
   <v>       0.30000000       0.50000000       0.20000000 </v>
   <v>       0.35000000       0.50000000       0.20000000 </v>
   <v>       0.40000000       0.50000000       0.20000000 </v>
   <v>       0.45000000       0.50000000       0.20000000 </v>
   <v>       0.50000000       0.50000000       0.20000000 </v>
   <v>      -0.45000000       0.50000000       0.20000000 </v>
   <v>      -0.40000000       0.50000000       0.20000000 </v>
   <v>      -0.35000000       0.50000000       0.20000000 </v>
   <v>      -0.30000000       0.50000000       0.20000000 </v>
   <v>      -0.25000000       0.50000000       0.20000000 </v>
   <v>      -0.20000000       0.50000000       0.20000000 </v>
   <v>      -0.15000000       0.50000000       0.20000000 </v>
   <v>      -0.10000000       0.50000000       0.20000000 </v>
   <v>      -0.05000000       0.50000000       0.20000000 </v>
   <v>       0.00000000      -0.45000000       0.20000000 </v>
   <v>       0.05000000      -0.45000000       0.20000000 </v>
   <v>       0.10000000      -0.45000000       0.20000000 </v>
   <v>       0.15000000      -0.45000000       0.20000000 </v>
   <v>       0.20000000      -0.45000000       0.20000000 </v>
   <v>       0.25000000      -0.45000000       0.20000000 </v>
   <v>       0.30000000      -0.45000000       0.20000000 </v>
   <v>       0.35000000      -0.45000000       0.20000000 </v>
   <v>       0.40000000      -0.45000000       0.20000000 </v>
   <v>       0.45000000      -0.45000000       0.20000000 </v>
   <v>       0.50000000      -0.45000000       0.20000000 </v>
   <v>      -0.45000000      -0.45000000       0.20000000 </v>
   <v>      -0.40000000      -0.45000000       0.20000000 </v>
   <v>      -0.35000000      -0.45000000       0.20000000 </v>
   <v>      -0.30000000      -0.45000000       0.20000000 </v>
   <v>      -0.25000000      -0.45000000       0.20000000 </v>
   <v>      -0.20000000      -0.45000000       0.20000000 </v>
   <v>      -0.15000000      -0.45000000       0.20000000 </v>
   <v>      -0.10000000      -0.45000000       0.20000000 </v>
   <v>      -0.05000000      -0.45000000       0.20000000 </v>
   <v>       0.00000000      -0.40000000       0.20000000 </v>
   <v>       0.05000000      -0.40000000       0.20000000 </v>
   <v>       0.10000000      -0.40000000       0.20000000 </v>
   <v>       0.15000000      -0.40000000       0.20000000 </v>
   <v>       0.20000000      -0.40000000       0.20000000 </v>
   <v>       0.25000000      -0.40000000       0.20000000 </v>
   <v>       0.30000000      -0.40000000       0.20000000 </v>
   <v>       0.35000000      -0.40000000       0.20000000 </v>
   <v>       0.40000000      -0.40000000       0.20000000 </v>
   <v>       0.45000000      -0.40000000       0.20000000 </v>
   <v>       0.50000000      -0.40000000       0.20000000 </v>
   <v>      -0.45000000      -0.40000000       0.20000000 </v>
   <v>      -0.40000000      -0.40000000       0.20000000 </v>
   <v>      -0.35000000      -0.40000000       0.20000000 </v>
   <v>      -0.30000000      -0.40000000       0.20000000 </v>
   <v>      -0.25000000      -0.40000000       0.20000000 </v>
   <v>      -0.20000000      -0.40000000       0.20000000 </v>
   <v>      -0.15000000      -0.40000000       0.20000000 </v>
   <v>      -0.10000000      -0.40000000       0.20000000 </v>
   <v>      -0.05000000      -0.40000000       0.20000000 </v>
   <v>       0.00000000      -0.35000000       0.20000000 </v>
   <v>       0.05000000      -0.35000000       0.20000000 </v>
   <v>       0.10000000      -0.35000000       0.20000000 </v>
   <v>       0.15000000      -0.35000000       0.20000000 </v>
   <v>       0.20000000      -0.35000000       0.20000000 </v>
   <v>       0.25000000      -0.35000000       0.20000000 </v>
   <v>       0.30000000      -0.35000000       0.20000000 </v>
   <v>       0.35000000      -0.35000000       0.20000000 </v>
   <v>       0.40000000      -0.35000000       0.20000000 </v>
   <v>       0.45000000      -0.35000000       0.20000000 </v>
   <v>       0.50000000      -0.35000000       0.20000000 </v>
   <v>      -0.45000000      -0.35000000       0.20000000 </v>
   <v>      -0.40000000      -0.35000000       0.20000000 </v>
   <v>      -0.35000000      -0.35000000       0.20000000 </v>
   <v>      -0.30000000      -0.35000000       0.20000000 </v>
   <v>      -0.25000000      -0.35000000       0.20000000 </v>
   <v>      -0.20000000      -0.35000000       0.20000000 </v>
   <v>      -0.15000000      -0.35000000       0.20000000 </v>
   <v>      -0.10000000      -0.35000000       0.20000000 </v>
   <v>      -0.05000000      -0.35000000       0.20000000 </v>
   <v>       0.00000000      -0.30000000       0.20000000 </v>
   <v>       0.05000000      -0.30000000       0.20000000 </v>
   <v>       0.10000000      -0.30000000       0.20000000 </v>
   <v>       0.15000000      -0.30000000       0.20000000 </v>
   <v>       0.20000000      -0.30000000       0.20000000 </v>
   <v>       0.25000000      -0.30000000       0.20000000 </v>
   <v>       0.30000000      -0.30000000       0.20000000 </v>
   <v>       0.35000000      -0.30000000       0.20000000 </v>
   <v>       0.40000000      -0.30000000       0.20000000 </v>
   <v>       0.45000000      -0.30000000       0.20000000 </v>
   <v>       0.50000000      -0.30000000       0.20000000 </v>
   <v>      -0.45000000      -0.30000000       0.20000000 </v>
   <v>      -0.40000000      -0.30000000       0.20000000 </v>
   <v>      -0.35000000      -0.30000000       0.20000000 </v>
   <v>      -0.30000000      -0.30000000       0.20000000 </v>
   <v>      -0.25000000      -0.30000000       0.20000000 </v>
   <v>      -0.20000000      -0.30000000       0.20000000 </v>
   <v>      -0.15000000      -0.30000000       0.20000000 </v>
   <v>      -0.10000000      -0.30000000       0.20000000 </v>
   <v>      -0.05000000      -0.30000000       0.20000000 </v>
   <v>       0.00000000      -0.25000000       0.20000000 </v>
   <v>       0.05000000      -0.25000000       0.20000000 </v>
   <v>       0.10000000      -0.25000000       0.20000000 </v>
   <v>       0.15000000      -0.25000000       0.20000000 </v>
   <v>       0.20000000      -0.25000000       0.20000000 </v>
   <v>       0.25000000      -0.25000000       0.20000000 </v>
   <v>       0.30000000      -0.25000000       0.20000000 </v>
   <v>       0.35000000      -0.25000000       0.20000000 </v>
   <v>       0.40000000      -0.25000000       0.20000000 </v>
   <v>       0.45000000      -0.25000000       0.20000000 </v>
   <v>       0.50000000      -0.25000000       0.20000000 </v>
   <v>      -0.45000000      -0.25000000       0.20000000 </v>
   <v>      -0.40000000      -0.25000000       0.20000000 </v>
   <v>      -0.35000000      -0.25000000       0.20000000 </v>
   <v>      -0.30000000      -0.25000000       0.20000000 </v>
   <v>      -0.25000000      -0.25000000       0.20000000 </v>
   <v>      -0.20000000      -0.25000000       0.20000000 </v>
   <v>      -0.15000000      -0.25000000       0.20000000 </v>
   <v>      -0.10000000      -0.25000000       0.20000000 </v>
   <v>      -0.05000000      -0.25000000       0.20000000 </v>
   <v>       0.00000000      -0.20000000       0.20000000 </v>
   <v>       0.05000000      -0.20000000       0.20000000 </v>
   <v>       0.10000000      -0.20000000       0.20000000 </v>
   <v>       0.15000000      -0.20000000       0.20000000 </v>
   <v>       0.20000000      -0.20000000       0.20000000 </v>
   <v>       0.25000000      -0.20000000       0.20000000 </v>
   <v>       0.30000000      -0.20000000       0.20000000 </v>
   <v>       0.35000000      -0.20000000       0.20000000 </v>
   <v>       0.40000000      -0.20000000       0.20000000 </v>
   <v>       0.45000000      -0.20000000       0.20000000 </v>
   <v>       0.50000000      -0.20000000       0.20000000 </v>
   <v>      -0.45000000      -0.20000000       0.20000000 </v>
   <v>      -0.40000000      -0.20000000       0.20000000 </v>
   <v>      -0.35000000      -0.20000000       0.20000000 </v>
   <v>      -0.30000000      -0.20000000       0.20000000 </v>
   <v>      -0.25000000      -0.20000000       0.20000000 </v>
   <v>      -0.20000000      -0.20000000       0.20000000 </v>
   <v>      -0.15000000      -0.20000000       0.20000000 </v>
   <v>      -0.10000000      -0.20000000       0.20000000 </v>
   <v>      -0.05000000      -0.20000000       0.20000000 </v>
   <v>       0.00000000      -0.15000000       0.20000000 </v>
   <v>       0.05000000      -0.15000000       0.20000000 </v>
   <v>       0.10000000      -0.15000000       0.20000000 </v>
   <v>       0.15000000      -0.15000000       0.20000000 </v>
   <v>       0.20000000      -0.15000000       0.20000000 </v>
   <v>       0.25000000      -0.15000000       0.20000000 </v>
   <v>       0.30000000      -0.15000000       0.20000000 </v>
   <v>       0.35000000      -0.15000000       0.20000000 </v>
   <v>       0.40000000      -0.15000000       0.20000000 </v>
   <v>       0.45000000      -0.15000000       0.20000000 </v>
   <v>       0.50000000      -0.15000000       0.20000000 </v>
   <v>      -0.45000000      -0.15000000       0.20000000 </v>
   <v>      -0.40000000      -0.15000000       0.20000000 </v>
   <v>      -0.35000000      -0.15000000       0.20000000 </v>
   <v>      -0.30000000      -0.15000000       0.20000000 </v>
   <v>      -0.25000000      -0.15000000       0.20000000 </v>
   <v>      -0.20000000      -0.15000000       0.20000000 </v>
   <v>      -0.15000000      -0.15000000       0.20000000 </v>
   <v>      -0.10000000      -0.15000000       0.20000000 </v>
   <v>      -0.05000000      -0.15000000       0.20000000 </v>
   <v>       0.00000000      -0.10000000       0.20000000 </v>
   <v>       0.05000000      -0.10000000       0.20000000 </v>
   <v>       0.10000000      -0.10000000       0.20000000 </v>
   <v>       0.15000000      -0.10000000       0.20000000 </v>
   <v>       0.20000000      -0.10000000       0.20000000 </v>
   <v>       0.25000000      -0.10000000       0.20000000 </v>
   <v>       0.30000000      -0.10000000       0.20000000 </v>
   <v>       0.35000000      -0.10000000       0.20000000 </v>
   <v>       0.40000000      -0.10000000       0.20000000 </v>
   <v>       0.45000000      -0.10000000       0.20000000 </v>
   <v>       0.50000000      -0.10000000       0.20000000 </v>
   <v>      -0.45000000      -0.10000000       0.20000000 </v>
   <v>      -0.40000000      -0.10000000       0.20000000 </v>
   <v>      -0.35000000      -0.10000000       0.20000000 </v>
   <v>      -0.30000000      -0.10000000       0.20000000 </v>
   <v>      -0.25000000      -0.10000000       0.20000000 </v>
   <v>      -0.20000000      -0.10000000       0.20000000 </v>
   <v>      -0.15000000      -0.10000000       0.20000000 </v>
   <v>      -0.10000000      -0.10000000       0.20000000 </v>
   <v>      -0.05000000      -0.10000000       0.20000000 </v>
   <v>       0.00000000      -0.05000000       0.20000000 </v>
   <v>       0.05000000      -0.05000000       0.20000000 </v>
   <v>       0.10000000      -0.05000000       0.20000000 </v>
   <v>       0.15000000      -0.05000000       0.20000000 </v>
   <v>       0.20000000      -0.05000000       0.20000000 </v>
   <v>       0.25000000      -0.05000000       0.20000000 </v>
   <v>       0.30000000      -0.05000000       0.20000000 </v>
   <v>       0.35000000      -0.05000000       0.20000000 </v>
   <v>       0.40000000      -0.05000000       0.20000000 </v>
   <v>       0.45000000      -0.05000000       0.20000000 </v>
   <v>       0.50000000      -0.05000000       0.20000000 </v>
   <v>      -0.45000000      -0.05000000       0.20000000 </v>
   <v>      -0.40000000      -0.05000000       0.20000000 </v>
   <v>      -0.35000000      -0.05000000       0.20000000 </v>
   <v>      -0.30000000      -0.05000000       0.20000000 </v>
   <v>      -0.25000000      -0.05000000       0.20000000 </v>
   <v>      -0.20000000      -0.05000000       0.20000000 </v>
   <v>      -0.15000000      -0.05000000       0.20000000 </v>
   <v>      -0.10000000      -0.05000000       0.20000000 </v>
   <v>      -0.05000000      -0.05000000       0.20000000 </v>
   <v>       0.00000000       0.00000000       0.30000000 </v>
   <v>       0.05000000       0.00000000       0.30000000 </v>
   <v>       0.10000000       0.00000000       0.30000000 </v>
   <v>       0.15000000       0.00000000       0.30000000 </v>
   <v>       0.20000000       0.00000000       0.30000000 </v>
   <v>       0.25000000       0.00000000       0.30000000 </v>
   <v>       0.30000000       0.00000000       0.30000000 </v>
   <v>       0.35000000       0.00000000       0.30000000 </v>
   <v>       0.40000000       0.00000000       0.30000000 </v>
   <v>       0.45000000       0.00000000       0.30000000 </v>
   <v>       0.50000000       0.00000000       0.30000000 </v>
   <v>      -0.45000000       0.00000000       0.30000000 </v>
   <v>      -0.40000000       0.00000000       0.30000000 </v>
   <v>      -0.35000000       0.00000000       0.30000000 </v>
   <v>      -0.30000000       0.00000000       0.30000000 </v>
   <v>      -0.25000000       0.00000000       0.30000000 </v>
   <v>      -0.20000000       0.00000000       0.30000000 </v>
   <v>      -0.15000000       0.00000000       0.30000000 </v>
   <v>      -0.10000000       0.00000000       0.30000000 </v>
   <v>      -0.05000000       0.00000000       0.30000000 </v>
   <v>       0.00000000       0.05000000       0.30000000 </v>
   <v>       0.05000000       0.05000000       0.30000000 </v>
   <v>       0.10000000       0.05000000       0.30000000 </v>
   <v>       0.15000000       0.05000000       0.30000000 </v>
   <v>       0.20000000       0.05000000       0.30000000 </v>
   <v>       0.25000000       0.05000000       0.30000000 </v>
   <v>       0.30000000       0.05000000       0.30000000 </v>
   <v>       0.35000000       0.05000000       0.30000000 </v>
   <v>       0.40000000       0.05000000       0.30000000 </v>
   <v>       0.45000000       0.05000000       0.30000000 </v>
   <v>       0.50000000       0.05000000       0.30000000 </v>
   <v>      -0.45000000       0.05000000       0.30000000 </v>
   <v>      -0.40000000       0.05000000       0.30000000 </v>
   <v>      -0.35000000       0.05000000       0.30000000 </v>
   <v>      -0.30000000       0.05000000       0.30000000 </v>
   <v>      -0.25000000       0.05000000       0.30000000 </v>
   <v>      -0.20000000       0.05000000       0.30000000 </v>
   <v>      -0.15000000       0.05000000       0.30000000 </v>
   <v>      -0.10000000       0.05000000       0.30000000 </v>
   <v>      -0.05000000       0.05000000       0.30000000 </v>
   <v>       0.00000000       0.10000000       0.30000000 </v>
   <v>       0.05000000       0.10000000       0.30000000 </v>
   <v>       0.10000000       0.10000000       0.30000000 </v>
   <v>       0.15000000       0.10000000       0.30000000 </v>
   <v>       0.20000000       0.10000000       0.30000000 </v>
   <v>       0.25000000       0.10000000       0.30000000 </v>
   <v>       0.30000000       0.10000000       0.30000000 </v>
   <v>       0.35000000       0.10000000       0.30000000 </v>
   <v>       0.40000000       0.10000000       0.30000000 </v>
   <v>       0.45000000       0.10000000       0.30000000 </v>
   <v>       0.50000000       0.10000000       0.30000000 </v>
   <v>      -0.45000000       0.10000000       0.30000000 </v>
   <v>      -0.40000000       0.10000000       0.30000000 </v>
   <v>      -0.35000000       0.10000000       0.30000000 </v>
   <v>      -0.30000000       0.10000000       0.30000000 </v>
   <v>      -0.25000000       0.10000000       0.30000000 </v>
   <v>      -0.20000000       0.10000000       0.30000000 </v>
   <v>      -0.15000000       0.10000000       0.30000000 </v>
   <v>      -0.10000000       0.10000000       0.30000000 </v>
   <v>      -0.05000000       0.10000000       0.30000000 </v>
   <v>       0.00000000       0.15000000       0.30000000 </v>
   <v>       0.05000000       0.15000000       0.30000000 </v>
   <v>       0.10000000       0.15000000       0.30000000 </v>
   <v>       0.15000000       0.15000000       0.30000000 </v>
   <v>       0.20000000       0.15000000       0.30000000 </v>
   <v>       0.25000000       0.15000000       0.30000000 </v>
   <v>       0.30000000       0.15000000       0.30000000 </v>
   <v>       0.35000000       0.15000000       0.30000000 </v>
   <v>       0.40000000       0.15000000       0.30000000 </v>
   <v>       0.45000000       0.15000000       0.30000000 </v>
   <v>       0.50000000       0.15000000       0.30000000 </v>
   <v>      -0.45000000       0.15000000       0.30000000 </v>
   <v>      -0.40000000       0.15000000       0.30000000 </v>
   <v>      -0.35000000       0.15000000       0.30000000 </v>
   <v>      -0.30000000       0.15000000       0.30000000 </v>
   <v>      -0.25000000       0.15000000       0.30000000 </v>
   <v>      -0.20000000       0.15000000       0.30000000 </v>
   <v>      -0.15000000       0.15000000       0.30000000 </v>
   <v>      -0.10000000       0.15000000       0.30000000 </v>
   <v>      -0.05000000       0.15000000       0.30000000 </v>
   <v>       0.00000000       0.20000000       0.30000000 </v>
   <v>       0.05000000       0.20000000       0.30000000 </v>
   <v>       0.10000000       0.20000000       0.30000000 </v>
   <v>       0.15000000       0.20000000       0.30000000 </v>
   <v>       0.20000000       0.20000000       0.30000000 </v>
   <v>       0.25000000       0.20000000       0.30000000 </v>
   <v>       0.30000000       0.20000000       0.30000000 </v>
   <v>       0.35000000       0.20000000       0.30000000 </v>
   <v>       0.40000000       0.20000000       0.30000000 </v>
   <v>       0.45000000       0.20000000       0.30000000 </v>
   <v>       0.50000000       0.20000000       0.30000000 </v>
   <v>      -0.45000000       0.20000000       0.30000000 </v>
   <v>      -0.40000000       0.20000000       0.30000000 </v>
   <v>      -0.35000000       0.20000000       0.30000000 </v>
   <v>      -0.30000000       0.20000000       0.30000000 </v>
   <v>      -0.25000000       0.20000000       0.30000000 </v>
   <v>      -0.20000000       0.20000000       0.30000000 </v>
   <v>      -0.15000000       0.20000000       0.30000000 </v>
   <v>      -0.10000000       0.20000000       0.30000000 </v>
   <v>      -0.05000000       0.20000000       0.30000000 </v>
   <v>       0.00000000       0.25000000       0.30000000 </v>
   <v>       0.05000000       0.25000000       0.30000000 </v>
   <v>       0.10000000       0.25000000       0.30000000 </v>
   <v>       0.15000000       0.25000000       0.30000000 </v>
   <v>       0.20000000       0.25000000       0.30000000 </v>
   <v>       0.25000000       0.25000000       0.30000000 </v>
   <v>       0.30000000       0.25000000       0.30000000 </v>
   <v>       0.35000000       0.25000000       0.30000000 </v>
   <v>       0.40000000       0.25000000       0.30000000 </v>
   <v>       0.45000000       0.25000000       0.30000000 </v>
   <v>       0.50000000       0.25000000       0.30000000 </v>
   <v>      -0.45000000       0.25000000       0.30000000 </v>
   <v>      -0.40000000       0.25000000       0.30000000 </v>
   <v>      -0.35000000       0.25000000       0.30000000 </v>
   <v>      -0.30000000       0.25000000       0.30000000 </v>
   <v>      -0.25000000       0.25000000       0.30000000 </v>
   <v>      -0.20000000       0.25000000       0.30000000 </v>
   <v>      -0.15000000       0.25000000       0.30000000 </v>
   <v>      -0.10000000       0.25000000       0.30000000 </v>
   <v>      -0.05000000       0.25000000       0.30000000 </v>
   <v>       0.00000000       0.30000000       0.30000000 </v>
   <v>       0.05000000       0.30000000       0.30000000 </v>
   <v>       0.10000000       0.30000000       0.30000000 </v>
   <v>       0.15000000       0.30000000       0.30000000 </v>
   <v>       0.20000000       0.30000000       0.30000000 </v>
   <v>       0.25000000       0.30000000       0.30000000 </v>
   <v>       0.30000000       0.30000000       0.30000000 </v>
   <v>       0.35000000       0.30000000       0.30000000 </v>
   <v>       0.40000000       0.30000000       0.30000000 </v>
   <v>       0.45000000       0.30000000       0.30000000 </v>
   <v>       0.50000000       0.30000000       0.30000000 </v>
   <v>      -0.45000000       0.30000000       0.30000000 </v>
   <v>      -0.40000000       0.30000000       0.30000000 </v>
   <v>      -0.35000000       0.30000000       0.30000000 </v>
   <v>      -0.30000000       0.30000000       0.30000000 </v>
   <v>      -0.25000000       0.30000000       0.30000000 </v>
   <v>      -0.20000000       0.30000000       0.30000000 </v>
   <v>      -0.15000000       0.30000000       0.30000000 </v>
   <v>      -0.10000000       0.30000000       0.30000000 </v>
   <v>      -0.05000000       0.30000000       0.30000000 </v>
   <v>       0.00000000       0.35000000       0.30000000 </v>
   <v>       0.05000000       0.35000000       0.30000000 </v>
   <v>       0.10000000       0.35000000       0.30000000 </v>
   <v>       0.15000000       0.35000000       0.30000000 </v>
   <v>       0.20000000       0.35000000       0.30000000 </v>
   <v>       0.25000000       0.35000000       0.30000000 </v>
   <v>       0.30000000       0.35000000       0.30000000 </v>
   <v>       0.35000000       0.35000000       0.30000000 </v>
   <v>       0.40000000       0.35000000       0.30000000 </v>
   <v>       0.45000000       0.35000000       0.30000000 </v>
   <v>       0.50000000       0.35000000       0.30000000 </v>
   <v>      -0.45000000       0.35000000       0.30000000 </v>
   <v>      -0.40000000       0.35000000       0.30000000 </v>
   <v>      -0.35000000       0.35000000       0.30000000 </v>
   <v>      -0.30000000       0.35000000       0.30000000 </v>
   <v>      -0.25000000       0.35000000       0.30000000 </v>
   <v>      -0.20000000       0.35000000       0.30000000 </v>
   <v>      -0.15000000       0.35000000       0.30000000 </v>
   <v>      -0.10000000       0.35000000       0.30000000 </v>
   <v>      -0.05000000       0.35000000       0.30000000 </v>
   <v>       0.00000000       0.40000000       0.30000000 </v>
   <v>       0.05000000       0.40000000       0.30000000 </v>
   <v>       0.10000000       0.40000000       0.30000000 </v>
   <v>       0.15000000       0.40000000       0.30000000 </v>
   <v>       0.20000000       0.40000000       0.30000000 </v>
   <v>       0.25000000       0.40000000       0.30000000 </v>
   <v>       0.30000000       0.40000000       0.30000000 </v>
   <v>       0.35000000       0.40000000       0.30000000 </v>
   <v>       0.40000000       0.40000000       0.30000000 </v>
   <v>       0.45000000       0.40000000       0.30000000 </v>
   <v>       0.50000000       0.40000000       0.30000000 </v>
   <v>      -0.45000000       0.40000000       0.30000000 </v>
   <v>      -0.40000000       0.40000000       0.30000000 </v>
   <v>      -0.35000000       0.40000000       0.30000000 </v>
   <v>      -0.30000000       0.40000000       0.30000000 </v>
   <v>      -0.25000000       0.40000000       0.30000000 </v>
   <v>      -0.20000000       0.40000000       0.30000000 </v>
   <v>      -0.15000000       0.40000000       0.30000000 </v>
   <v>      -0.10000000       0.40000000       0.30000000 </v>
   <v>      -0.05000000       0.40000000       0.30000000 </v>
   <v>       0.00000000       0.45000000       0.30000000 </v>
   <v>       0.05000000       0.45000000       0.30000000 </v>
   <v>       0.10000000       0.45000000       0.30000000 </v>
   <v>       0.15000000       0.45000000       0.30000000 </v>
   <v>       0.20000000       0.45000000       0.30000000 </v>
   <v>       0.25000000       0.45000000       0.30000000 </v>
   <v>       0.30000000       0.45000000       0.30000000 </v>
   <v>       0.35000000       0.45000000       0.30000000 </v>
   <v>       0.40000000       0.45000000       0.30000000 </v>
   <v>       0.45000000       0.45000000       0.30000000 </v>
   <v>       0.50000000       0.45000000       0.30000000 </v>
   <v>      -0.45000000       0.45000000       0.30000000 </v>
   <v>      -0.40000000       0.45000000       0.30000000 </v>
   <v>      -0.35000000       0.45000000       0.30000000 </v>
   <v>      -0.30000000       0.45000000       0.30000000 </v>
   <v>      -0.25000000       0.45000000       0.30000000 </v>
   <v>      -0.20000000       0.45000000       0.30000000 </v>
   <v>      -0.15000000       0.45000000       0.30000000 </v>
   <v>      -0.10000000       0.45000000       0.30000000 </v>
   <v>      -0.05000000       0.45000000       0.30000000 </v>
   <v>       0.00000000       0.50000000       0.30000000 </v>
   <v>       0.05000000       0.50000000       0.30000000 </v>
   <v>       0.10000000       0.50000000       0.30000000 </v>
   <v>       0.15000000       0.50000000       0.30000000 </v>
   <v>       0.20000000       0.50000000       0.30000000 </v>
   <v>       0.25000000       0.50000000       0.30000000 </v>
   <v>       0.30000000       0.50000000       0.30000000 </v>
   <v>       0.35000000       0.50000000       0.30000000 </v>
   <v>       0.40000000       0.50000000       0.30000000 </v>
   <v>       0.45000000       0.50000000       0.30000000 </v>
   <v>       0.50000000       0.50000000       0.30000000 </v>
   <v>      -0.45000000       0.50000000       0.30000000 </v>
   <v>      -0.40000000       0.50000000       0.30000000 </v>
   <v>      -0.35000000       0.50000000       0.30000000 </v>
   <v>      -0.30000000       0.50000000       0.30000000 </v>
   <v>      -0.25000000       0.50000000       0.30000000 </v>
   <v>      -0.20000000       0.50000000       0.30000000 </v>
   <v>      -0.15000000       0.50000000       0.30000000 </v>
   <v>      -0.10000000       0.50000000       0.30000000 </v>
   <v>      -0.05000000       0.50000000       0.30000000 </v>
   <v>       0.00000000      -0.45000000       0.30000000 </v>
   <v>       0.05000000      -0.45000000       0.30000000 </v>
   <v>       0.10000000      -0.45000000       0.30000000 </v>
   <v>       0.15000000      -0.45000000       0.30000000 </v>
   <v>       0.20000000      -0.45000000       0.30000000 </v>
   <v>       0.25000000      -0.45000000       0.30000000 </v>
   <v>       0.30000000      -0.45000000       0.30000000 </v>
   <v>       0.35000000      -0.45000000       0.30000000 </v>
   <v>       0.40000000      -0.45000000       0.30000000 </v>
   <v>       0.45000000      -0.45000000       0.30000000 </v>
   <v>       0.50000000      -0.45000000       0.30000000 </v>
   <v>      -0.45000000      -0.45000000       0.30000000 </v>
   <v>      -0.40000000      -0.45000000       0.30000000 </v>
   <v>      -0.35000000      -0.45000000       0.30000000 </v>
   <v>      -0.30000000      -0.45000000       0.30000000 </v>
   <v>      -0.25000000      -0.45000000       0.30000000 </v>
   <v>      -0.20000000      -0.45000000       0.30000000 </v>
   <v>      -0.15000000      -0.45000000       0.30000000 </v>
   <v>      -0.10000000      -0.45000000       0.30000000 </v>
   <v>      -0.05000000      -0.45000000       0.30000000 </v>
   <v>       0.00000000      -0.40000000       0.30000000 </v>
   <v>       0.05000000      -0.40000000       0.30000000 </v>
[...]
       <r>   12.5179    0.0000 </r>
       <r>   12.5185    0.0000 </r>
      </set>
      <set comment="kpoint 2002">
       <r>   -9.1199    1.0000 </r>
       <r>   -9.1199    1.0000 </r>
       <r>   -8.8581    1.0000 </r>
       <r>   -8.8581    1.0000 </r>
       <r>   -2.3961    1.0000 </r>
       <r>   -2.3960    1.0000 </r>
       <r>   -1.6663    1.0000 </r>
       <r>   -1.6663    1.0000 </r>
       <r>   -0.8291    1.0000 </r>
       <r>   -0.8291    1.0000 </r>
       <r>   -0.0125    1.0000 </r>
       <r>   -0.0125    1.0000 </r>
       <r>    1.3496    1.0000 </r>
       <r>    1.3496    1.0000 </r>
       <r>    1.5014    1.0000 </r>
       <r>    1.5014    1.0000 </r>
       <r>    2.6627    1.0000 </r>
       <r>    2.6627    1.0000 </r>
       <r>    5.3624    0.0000 </r>
       <r>    5.3625    0.0000 </r>
       <r>    5.8609    0.0000 </r>
       <r>    5.8609    0.0000 </r>
       <r>    6.8985    0.0000 </r>
       <r>    6.8986    0.0000 </r>
       <r>    7.3448    0.0000 </r>
       <r>    7.3448    0.0000 </r>
       <r>    9.6933    0.0000 </r>
       <r>    9.6933    0.0000 </r>
       <r>   11.4300    0.0000 </r>
       <r>   11.4300    0.0000 </r>
       <r>   11.9579    0.0000 </r>
       <r>   11.9579    0.0000 </r>
      </set>
      <set comment="kpoint 2003">
       <r>   -9.1122    1.0000 </r>
       <r>   -9.1122    1.0000 </r>
       <r>   -8.8628    1.0000 </r>
       <r>   -8.8628    1.0000 </r>
       <r>   -2.5379    1.0000 </r>
       <r>   -2.5379    1.0000 </r>
       <r>   -1.6362    1.0000 </r>
       <r>   -1.6362    1.0000 </r>
       <r>   -0.8903    1.0000 </r>
       <r>   -0.8903    1.0000 </r>
       <r>   -0.0037    1.0000 </r>
       <r>   -0.0037    1.0000 </r>
       <r>    1.3057    1.0000 </r>
       <r>    1.3057    1.0000 </r>
       <r>    1.9594    1.0000 </r>
       <r>    1.9594    1.0000 </r>
       <r>    2.6013    1.0000 </r>
       <r>    2.6013    1.0000 </r>
       <r>    5.3521    0.0000 </r>
       <r>    5.3521    0.0000 </r>
       <r>    5.8570    0.0000 </r>
       <r>    5.8571    0.0000 </r>
       <r>    7.0767    0.0000 </r>
       <r>    7.0767    0.0000 </r>
       <r>    7.3265    0.0000 </r>
       <r>    7.3265    0.0000 </r>
       <r>    9.4286    0.0000 </r>
       <r>    9.4286    0.0000 </r>
       <r>   11.1741    0.0000 </r>
       <r>   11.1741    0.0000 </r>
       <r>   11.5777    0.0000 </r>
       <r>   11.5778    0.0000 </r>
      </set>
      <set comment="kpoint 2004">
       <r>   -9.1093    1.0000 </r>
       <r>   -9.1093    1.0000 </r>
       <r>   -8.8646    1.0000 </r>
       <r>   -8.8646    1.0000 </r>
       <r>   -2.5888    1.0000 </r>
       <r>   -2.5888    1.0000 </r>
       <r>   -1.6243    1.0000 </r>
       <r>   -1.6243    1.0000 </r>
       <r>   -0.9105    1.0000 </r>
       <r>   -0.9105    1.0000 </r>
       <r>   -0.0026    1.0000 </r>
       <r>   -0.0026    1.0000 </r>
       <r>    1.2920    1.0000 </r>
       <r>    1.2920    1.0000 </r>
       <r>    2.1969    1.0000 </r>
       <r>    2.1969    1.0000 </r>
       <r>    2.5143    1.0000 </r>
       <r>    2.5143    1.0000 </r>
       <r>    5.3404    0.0000 </r>
       <r>    5.3404    0.0000 </r>
       <r>    5.8598    0.0000 </r>
       <r>    5.8599    0.0000 </r>
       <r>    7.0566    0.0000 </r>
       <r>    7.0566    0.0000 </r>
       <r>    7.4215    0.0000 </r>
       <r>    7.4215    0.0000 </r>
       <r>    9.3323    0.0000 </r>
       <r>    9.3324    0.0000 </r>
       <r>   11.0317    0.0000 </r>
       <r>   11.0317    0.0000 </r>
       <r>   11.4637    0.0000 </r>
       <r>   11.4637    0.0000 </r>
      </set>
     </set>
    </set>
   </array>
  </eigenvalues>
  <separator name="orbital magnetization" >
   <v name="MAGDIPOLOUT">      0.00000000      0.00000000      0.00000000</v>
  </separator>
  <dos>
   <i name="efermi">      3.56733769 </i>
   <total>
    <array>
     <dimension dim="1">gridpoints</dimension>
     <dimension dim="2">spin</dimension>
     <field>energy</field>
     <field>total</field>
     <field>integrated</field>
     <set>
      <set comment="spin 1">
       <r>   -12.1434     0.0000     0.0000 </r>
       <r>   -12.0536     0.0000     0.0000 </r>
       <r>   -11.9639     0.0000     0.0000 </r>
       <r>   -11.8741     0.0000     0.0000 </r>
       <r>   -11.7844     0.0000     0.0000 </r>
       <r>   -11.6946     0.0000     0.0000 </r>
       <r>   -11.6049     0.0000     0.0000 </r>
       <r>   -11.5152     0.0000     0.0000 </r>
       <r>   -11.4254     0.0000     0.0000 </r>
       <r>   -11.3357     0.0000     0.0000 </r>
       <r>   -11.2459     0.0000     0.0000 </r>
       <r>   -11.1562     0.0000     0.0000 </r>
       <r>   -11.0664     0.0000     0.0000 </r>
       <r>   -10.9767     0.0051     0.0005 </r>
       <r>   -10.8870     0.3312     0.0302 </r>
       <r>   -10.7972     0.9793     0.1181 </r>
       <r>   -10.7075     0.9664     0.2048 </r>
       <r>   -10.6177     1.3007     0.3215 </r>
       <r>   -10.5280     0.8028     0.3936 </r>
       <r>   -10.4382     1.5558     0.5332 </r>
       <r>   -10.3485     0.8129     0.6061 </r>
       <r>   -10.2588     1.4554     0.7368 </r>
       <r>   -10.1690     1.2749     0.8512 </r>
       <r>   -10.0793     0.9672     0.9380 </r>
       <r>    -9.9895     1.8576     1.1047 </r>
       <r>    -9.8998     1.1583     1.2086 </r>
       <r>    -9.8100     1.3657     1.3312 </r>
       <r>    -9.7203     2.1490     1.5240 </r>
       <r>    -9.6305     2.6012     1.7575 </r>
       <r>    -9.5408     4.3012     2.1435 </r>
       <r>    -9.4511     4.6388     2.5598 </r>
       <r>    -9.3613     4.2602     2.9421 </r>
       <r>    -9.2716     6.2209     3.5004 </r>
       <r>    -9.1818     5.5670     4.0000 </r>
       <r>    -9.0921     9.1594     4.8220 </r>
       <r>    -9.0023     8.2681     5.5640 </r>
       <r>    -8.9126     8.9909     6.3709 </r>
       <r>    -8.8229     9.9685     7.2655 </r>
       <r>    -8.7331     6.0723     7.8104 </r>
       <r>    -8.6434     2.0621     7.9955 </r>
       <r>    -8.5536     0.0503     8.0000 </r>
       <r>    -8.4639     0.0000     8.0000 </r>
       <r>    -8.3741     0.0000     8.0000 </r>
       <r>    -8.2844     0.0000     8.0000 </r>
       <r>    -8.1947     0.0000     8.0000 </r>
       <r>    -8.1049     0.0000     8.0000 </r>
       <r>    -8.0152     0.0000     8.0000 </r>
       <r>    -7.9254     0.0000     8.0000 </r>
       <r>    -7.8357     0.0000     8.0000 </r>
       <r>    -7.7459     0.0000     8.0000 </r>
       <r>    -7.6562     0.0000     8.0000 </r>
       <r>    -7.5665     0.0000     8.0000 </r>
       <r>    -7.4767     0.0000     8.0000 </r>
       <r>    -7.3870     0.0000     8.0000 </r>
       <r>    -7.2972     0.0000     8.0000 </r>
       <r>    -7.2075     0.0000     8.0000 </r>
       <r>    -7.1177     0.0000     8.0000 </r>
       <r>    -7.0280     0.0000     8.0000 </r>
       <r>    -6.9382     0.0000     8.0000 </r>
       <r>    -6.8485     0.0000     8.0000 </r>
       <r>    -6.7588     0.0000     8.0000 </r>
       <r>    -6.6690     0.0000     8.0000 </r>
       <r>    -6.5793     0.0000     8.0000 </r>
       <r>    -6.4895     0.0000     8.0000 </r>
       <r>    -6.3998     0.0000     8.0000 </r>
       <r>    -6.3100     0.0000     8.0000 </r>
       <r>    -6.2203     0.0000     8.0000 </r>
       <r>    -6.1306     0.0000     8.0000 </r>
       <r>    -6.0408     0.0000     8.0000 </r>
       <r>    -5.9511     0.0000     8.0000 </r>
       <r>    -5.8613     0.0000     8.0000 </r>
       <r>    -5.7716     0.0000     8.0000 </r>
       <r>    -5.6818     0.0000     8.0000 </r>
       <r>    -5.5921     0.0000     8.0000 </r>
       <r>    -5.5024     0.0000     8.0000 </r>
       <r>    -5.4126     0.0000     8.0000 </r>
       <r>    -5.3229     0.0000     8.0000 </r>
       <r>    -5.2331     0.0000     8.0000 </r>
       <r>    -5.1434     0.0000     8.0000 </r>
       <r>    -5.0536     0.0000     8.0000 </r>
       <r>    -4.9639     0.0000     8.0000 </r>
       <r>    -4.8741     0.0000     8.0000 </r>
       <r>    -4.7844     0.0000     8.0000 </r>
       <r>    -4.6947     0.0000     8.0000 </r>
       <r>    -4.6049     0.0000     8.0000 </r>
       <r>    -4.5152     0.0000     8.0000 </r>
       <r>    -4.4254     0.0000     8.0000 </r>
       <r>    -4.3357     0.0000     8.0000 </r>
       <r>    -4.2459     0.0000     8.0000 </r>
       <r>    -4.1562     0.0000     8.0000 </r>
       <r>    -4.0665     0.0000     8.0000 </r>
       <r>    -3.9767     0.0000     8.0000 </r>
       <r>    -3.8870     0.0000     8.0000 </r>
       <r>    -3.7972     0.0000     8.0000 </r>
       <r>    -3.7075     0.0000     8.0000 </r>
       <r>    -3.6177     0.0000     8.0000 </r>
       <r>    -3.5280     0.0000     8.0000 </r>
       <r>    -3.4383     0.0000     8.0000 </r>
       <r>    -3.3485     0.0000     8.0000 </r>
       <r>    -3.2588     0.0000     8.0000 </r>
       <r>    -3.1690     0.0000     8.0000 </r>
       <r>    -3.0793     0.0000     8.0000 </r>
       <r>    -2.9895     0.0000     8.0000 </r>
       <r>    -2.8998     0.0000     8.0000 </r>
       <r>    -2.8101     0.0000     8.0000 </r>
       <r>    -2.7203     0.0001     8.0000 </r>
       <r>    -2.6306     0.0519     8.0047 </r>
       <r>    -2.5408     1.1422     8.1072 </r>
       <r>    -2.4511     2.0545     8.2915 </r>
       <r>    -2.3613     3.2748     8.5854 </r>
       <r>    -2.2716     2.7416     8.8315 </r>
       <r>    -2.1818     5.2307     9.3009 </r>
       <r>    -2.0921     4.7076     9.7234 </r>
       <r>    -2.0024     7.5978    10.4052 </r>
       <r>    -1.9126     8.4590    11.1644 </r>
       <r>    -1.8229     8.6118    11.9372 </r>
       <r>    -1.7331     7.3883    12.6003 </r>
       <r>    -1.6434     5.2613    13.0724 </r>
       <r>    -1.5536     2.3366    13.2821 </r>
       <r>    -1.4639     3.0307    13.5541 </r>
       <r>    -1.3742     3.2647    13.8471 </r>
       <r>    -1.2844     1.0220    13.9388 </r>
       <r>    -1.1947     1.1011    14.0376 </r>
       <r>    -1.1049     1.6048    14.1817 </r>
       <r>    -1.0152     1.8756    14.3500 </r>
       <r>    -0.9254     1.9020    14.5207 </r>
       <r>    -0.8357     4.7152    14.9438 </r>
       <r>    -0.7460     8.8979    15.7424 </r>
       <r>    -0.6562    11.8858    16.8090 </r>
       <r>    -0.5665     9.3145    17.6449 </r>
       <r>    -0.4767     5.9550    18.1794 </r>
       <r>    -0.3870     2.9447    18.4436 </r>
       <r>    -0.2972     2.8107    18.6959 </r>
       <r>    -0.2075     2.6229    18.9313 </r>
       <r>    -0.1177     3.2902    19.2265 </r>
       <r>    -0.0280    10.0339    20.1270 </r>
       <r>     0.0617    14.0801    21.3906 </r>
       <r>     0.1515     6.9739    22.0165 </r>
       <r>     0.2412     4.7420    22.4420 </r>
       <r>     0.3310     4.6063    22.8554 </r>
       <r>     0.4207     2.0657    23.0408 </r>
       <r>     0.5105     5.2637    23.5132 </r>
       <r>     0.6002     2.7595    23.7608 </r>
       <r>     0.6899     3.9893    24.1188 </r>
       <r>     0.7797     2.0498    24.3028 </r>
       <r>     0.8694     1.9043    24.4737 </r>
       <r>     0.9592     4.6599    24.8919 </r>
       <r>     1.0489     6.3383    25.4607 </r>
       <r>     1.1387     3.7832    25.8002 </r>
       <r>     1.2284     5.8170    26.3223 </r>
       <r>     1.3181     8.4944    27.0846 </r>
       <r>     1.4079     9.1119    27.9023 </r>
       <r>     1.4976     8.4522    28.6608 </r>
       <r>     1.5874     5.0376    29.1129 </r>
       <r>     1.6771     5.1338    29.5736 </r>
       <r>     1.7669     3.6626    29.9023 </r>
       <r>     1.8566     3.7822    30.2418 </r>
       <r>     1.9463     5.2754    30.7152 </r>
       <r>     2.0361     4.3701    31.1074 </r>
       <r>     2.1258     4.3218    31.4952 </r>
       <r>     2.2156     4.3837    31.8887 </r>
       <r>     2.3053     5.1914    32.3545 </r>
       <r>     2.3951     7.5505    33.0322 </r>
       <r>     2.4848     5.7210    33.5456 </r>
       <r>     2.5746     5.2105    34.0132 </r>
       <r>     2.6643     5.2850    34.4875 </r>
       <r>     2.7540     3.7341    34.8226 </r>
       <r>     2.8438     4.1655    35.1964 </r>
       <r>     2.9335     2.9473    35.4609 </r>
       <r>     3.0233     2.6461    35.6984 </r>
       <r>     3.1130     1.8403    35.8635 </r>
       <r>     3.2028     0.9239    35.9464 </r>
       <r>     3.2925     0.4556    35.9873 </r>
       <r>     3.3822     0.1374    35.9997 </r>
       <r>     3.4720     0.0037    36.0000 </r>
       <r>     3.5617     0.0000    36.0000 </r>
       <r>     3.6515     0.0000    36.0000 </r>
       <r>     3.7412     0.0000    36.0000 </r>
       <r>     3.8310     0.0000    36.0000 </r>
       <r>     3.9207     0.0000    36.0000 </r>
       <r>     4.0104     0.0000    36.0000 </r>
       <r>     4.1002     0.0000    36.0000 </r>
       <r>     4.1899     0.0000    36.0000 </r>
       <r>     4.2797     0.0000    36.0000 </r>
       <r>     4.3694     0.0000    36.0000 </r>
       <r>     4.4592     0.0000    36.0000 </r>
       <r>     4.5489     0.0000    36.0000 </r>
       <r>     4.6386     0.0000    36.0000 </r>
       <r>     4.7284     0.0006    36.0001 </r>
       <r>     4.8181     0.1821    36.0164 </r>
       <r>     4.9079     0.6089    36.0710 </r>
       <r>     4.9976     1.5471    36.2099 </r>
       <r>     5.0874     2.6230    36.4453 </r>
       <r>     5.1771     5.1725    36.9095 </r>
       <r>     5.2669     8.2080    37.6461 </r>
       <r>     5.3566    13.9199    38.8953 </r>
       <r>     5.4463     7.9497    39.6087 </r>
       <r>     5.5361     5.1066    40.0670 </r>
       <r>     5.6258     9.6697    40.9348 </r>
       <r>     5.7156    11.3695    41.9551 </r>
       <r>     5.8053    10.2482    42.8749 </r>
       <r>     5.8951     8.8810    43.6719 </r>
       <r>     5.9848     6.8901    44.2902 </r>
       <r>     6.0745     5.0997    44.7479 </r>
       <r>     6.1643     5.8341    45.2714 </r>
       <r>     6.2540     6.2182    45.8295 </r>
       <r>     6.3438     5.6324    46.3350 </r>
       <r>     6.4335     5.0682    46.7898 </r>
       <r>     6.5233     4.1862    47.1655 </r>
       <r>     6.6130     3.6627    47.4942 </r>
       <r>     6.7027     3.8344    47.8383 </r>
       <r>     6.7925     2.1215    48.0287 </r>
       <r>     6.8822     3.1675    48.3129 </r>
       <r>     6.9720     3.4210    48.6199 </r>
       <r>     7.0617     2.4953    48.8439 </r>
       <r>     7.1515     3.3482    49.1443 </r>
       <r>     7.2412     2.7444    49.3906 </r>
       <r>     7.3310     5.2270    49.8597 </r>
       <r>     7.4207     7.1175    50.4985 </r>
       <r>     7.5104     4.4282    50.8959 </r>
       <r>     7.6002     3.3572    51.1972 </r>
       <r>     7.6899     2.7253    51.4417 </r>
       <r>     7.7797     2.2390    51.6427 </r>
       <r>     7.8694     1.8103    51.8051 </r>
       <r>     7.9592     1.5077    51.9404 </r>
       <r>     8.0489     0.6422    51.9981 </r>
       <r>     8.1386     0.0215    52.0000 </r>
       <r>     8.2284     0.0000    52.0000 </r>
       <r>     8.3181     0.0000    52.0000 </r>
       <r>     8.4079     0.0000    52.0000 </r>
       <r>     8.4976     0.0000    52.0000 </r>
       <r>     8.5874     0.0000    52.0000 </r>
       <r>     8.6771     0.0000    52.0000 </r>
       <r>     8.7668     0.0000    52.0000 </r>
       <r>     8.8566     0.0000    52.0000 </r>
       <r>     8.9463     0.0000    52.0000 </r>
       <r>     9.0361     0.0021    52.0002 </r>
       <r>     9.1258     0.0215    52.0021 </r>
       <r>     9.2156     0.0719    52.0086 </r>
       <r>     9.3053     0.2996    52.0355 </r>
       <r>     9.3950     0.7834    52.1058 </r>
       <r>     9.4848     1.5192    52.2421 </r>
       <r>     9.5745     1.0845    52.3394 </r>
       <r>     9.6643     1.1246    52.4404 </r>
       <r>     9.7540     2.4737    52.6624 </r>
       <r>     9.8438     1.6464    52.8101 </r>
       <r>     9.9335     1.1539    52.9137 </r>
       <r>    10.0233     1.6235    53.0594 </r>
       <r>    10.1130     3.5451    53.3775 </r>
       <r>    10.2027     2.5043    53.6023 </r>
       <r>    10.2925     2.4912    53.8258 </r>
       <r>    10.3822     2.8387    54.0806 </r>
       <r>    10.4720     4.1872    54.4564 </r>
       <r>    10.5617     3.7866    54.7962 </r>
       <r>    10.6515     3.2688    55.0895 </r>
       <r>    10.7412     2.9418    55.3535 </r>
       <r>    10.8309     3.1798    55.6389 </r>
       <r>    10.9207     3.7510    55.9755 </r>
       <r>    11.0104     4.0930    56.3429 </r>
       <r>    11.1002     3.8456    56.6880 </r>
       <r>    11.1899     3.2636    56.9809 </r>
       <r>    11.2797     3.1903    57.2672 </r>
       <r>    11.3694     3.8356    57.6114 </r>
       <r>    11.4591     3.8616    57.9579 </r>
       <r>    11.5489     4.6732    58.3773 </r>
       <r>    11.6386     5.5832    58.8784 </r>
       <r>    11.7284     3.9340    59.2314 </r>
       <r>    11.8181     4.0666    59.5964 </r>
       <r>    11.9079     4.2435    59.9772 </r>
       <r>    11.9976     4.1825    60.3526 </r>
       <r>    12.0873     3.3251    60.6510 </r>
       <r>    12.1771     3.2531    60.9429 </r>
       <r>    12.2668     3.6415    61.2697 </r>
       <r>    12.3566     3.0105    61.5399 </r>
       <r>    12.4463     3.8623    61.8865 </r>
       <r>    12.5361     3.6485    62.2139 </r>
       <r>    12.6258     2.6319    62.4501 </r>
       <r>    12.7156     2.9319    62.7133 </r>
       <r>    12.8053     4.1635    63.0869 </r>
       <r>    12.8950     3.0655    63.3620 </r>
       <r>    12.9848     2.3809    63.5757 </r>
       <r>    13.0745     1.4379    63.7047 </r>
       <r>    13.1643     1.0862    63.8022 </r>
       <r>    13.2540     0.7459    63.8691 </r>
       <r>    13.3438     1.1064    63.9684 </r>
       <r>    13.4335     0.3284    63.9979 </r>
       <r>    13.5232     0.0140    63.9992 </r>
       <r>    13.6130     0.0086    63.9999 </r>
       <r>    13.7027     0.0006    64.0000 </r>
       <r>    13.7925     0.0000    64.0000 </r>
       <r>    13.8822     0.0000    64.0000 </r>
       <r>    13.9720     0.0000    64.0000 </r>
       <r>    14.0617     0.0000    64.0000 </r>
       <r>    14.1514     0.0000    64.0000 </r>
       <r>    14.2412     0.0000    64.0000 </r>
       <r>    14.3309     0.0000    64.0000 </r>
       <r>    14.4207     0.0000    64.0000 </r>
       <r>    14.5104     0.0000    64.0000 </r>
       <r>    14.6002     0.0000    64.0000 </r>
       <r>    14.6899     0.0000    64.0000 </r>
       <r>    14.7797     0.0000    64.0000 </r>
      </set>
     </set>
    </array>
   </total>
  </dos>
 </calculation>
 <structure name="finalpos" >
  <crystal>
   <varray name="basis" >
    <v>       3.18531719       0.00000000       0.00000000 </v>
    <v>      -1.59265860       2.75856491       0.00000000 </v>
    <v>       0.00000000       0.00000000      14.86003508 </v>
   </varray>
   <i name="volume">    130.57370526 </i>
   <varray name="rec_basis" >
    <v>       0.31394048       0.18125366       0.00000000 </v>
    <v>       0.00000000       0.36250733       0.00000000 </v>
    <v>       0.00000000       0.00000000       0.06729459 </v>
   </varray>
  </crystal>
  <varray name="positions" >
   <v>       0.66666700       0.33333300       0.25000000 </v>
   <v>       0.33333300       0.66666700       0.75000000 </v>
   <v>       0.33333300       0.66666700       0.14490265 </v>
   <v>       0.66666700       0.33333300       0.64490265 </v>
   <v>       0.33333300       0.66666700       0.35509735 </v>
   <v>       0.66666700       0.33333300       0.85509735 </v>
  </varray>
 </structure>
</modeling>
