
     Program BANDS v.5.2.0 starts on 27May2017 at 19: 2:35 

     This program is part of the open-source Quantum ESPRESSO suite
     for quantum simulation of materials; please cite
         "P. Giannozzi et al., J. Phys.:Condens. Matter 21 395502 (2009);
          URL http://www.quantum-espresso.org", 
     in publications or presentations arising from this work. More details at
     http://www.quantum-espresso.org/quote

     Parallel version (MPI), running on     1 processors

     Reading data from directory:
     ../out/MoS2-2H.save

   Info: using nr1, nr2, nr3 values from input

   Info: using nr1, nr2, nr3 values from input

     IMPORTANT: XC functional enforced from input :
     Exchange-correlation      = PBE ( 1  4  3  4 0 0)
     Any further DFT definition will be discarded
     Please, verify this is what you really want

               file S.pbe-mt_fhi.UPF: wavefunction(s)  4f renormalized
               file Mo.pbe-mt_fhi.UPF: wavefunction(s)  4f renormalized
 
     G-vector sticks info
     --------------------
     sticks:   dense  smooth     PW     G-vecs:    dense   smooth      PW
     Sum         367     367    121                26935    26935    4705
 
     high-symmetry point:  0.0000 0.0000 0.0000   x coordinate   0.0000
     high-symmetry point:  0.5000 0.2887 0.0000   x coordinate   0.5774
     high-symmetry point:  0.3333 0.5773 0.0000   x coordinate   0.9107
     high-symmetry point:  0.0000 0.0000 0.0000   x coordinate   1.5773
     high-symmetry point:  0.0000 0.0000 0.1072   x coordinate   1.6845
     high-symmetry point:  0.5000 0.2887 0.1072   x coordinate   2.2619
     high-symmetry point:  0.3333 0.5773 0.1072   x coordinate   2.5952
     high-symmetry point:  0.0000 0.0000 0.1072   x coordinate   3.2619

     Plottable bands written to file MoS2-2H.bands.dat.gnu
     Bands written to file MoS2-2H.bands.dat
 
     BANDS        :     4.40s CPU         5.13s WALL

 
   This run was terminated on:  19: 2:40  27May2017            

=------------------------------------------------------------------------------=
   JOB DONE.
=------------------------------------------------------------------------------=
