<?xml version="1.0" encoding="ISO-8859-1"?>
<modeling>
 <generator>
  <i name="program" type="string">vasp </i>
  <i name="version" type="string">5.4.4.18Apr17-6-g9f103f2a35  </i>
  <i name="subversion" type="string">(build Jan 06 2022 15:41:42) complex            parallel </i>
  <i name="platform" type="string">LinuxIFC </i>
  <i name="date" type="string">2022 02 14 </i>
  <i name="time" type="string">17:41:52 </i>
 </generator>
 <incar>
  <i type="string" name="SYSTEM"> MoTe2</i>
  <i type="string" name="PREC">accurate</i>
  <i type="int" name="IBRION">    -1</i>
  <i name="EDIFF">      0.00000001</i>
  <i type="int" name="NSW">     1</i>
  <i type="int" name="ISYM">     2</i>
  <i name="ENCUT">    400.00000000</i>
  <i type="int" name="NBANDS">    65</i>
  <i type="int" name="NEDOS">  3000</i>
  <i type="logical" name="LREAL"> F  </i>
  <i type="int" name="ISMEAR">     0</i>
  <i name="SIGMA">      0.05000000</i>
  <i type="logical" name="LWAVE"> T  </i>
  <i type="logical" name="LASPH"> T  </i>
  <v type="int" name="KPOINT_BSE">    -1     0     0     0</v>
  <i type="logical" name="LASPH"> T  </i>
  <i type="logical" name="LWANNIER90"> T  </i>
 </incar>
 <structure name="primitive_cell" >
  <crystal>
   <varray name="basis" >
    <v>       1.59265383      -2.75855735       0.00000000 </v>
    <v>       1.59265383       2.75855735       0.00000000 </v>
    <v>       0.00000000       0.00000000      13.98103146 </v>
   </varray>
   <i name="volume">    122.84928053 </i>
   <varray name="rec_basis" >
    <v>       0.31394142      -0.18125416       0.00000000 </v>
    <v>       0.31394142       0.18125416       0.00000000 </v>
    <v>       0.00000000       0.00000000       0.07152548 </v>
   </varray>
  </crystal>
  <varray name="positions" >
   <v>       0.33333333      -0.33333333       0.25000000 </v>
   <v>      -0.33333333       0.33333333       0.36189349 </v>
   <v>      -0.33333333       0.33333333       0.13810650 </v>
   <v>       0.33333333      -0.33333333      -0.13810647 </v>
   <v>       0.33333333      -0.33333333      -0.36189349 </v>
   <v>      -0.33333333       0.33333333      -0.25000000 </v>
  </varray>
 </structure>
 <varray name="primitive_index" >
  <v type="int" >        1 </v>
  <v type="int" >        4 </v>
  <v type="int" >        5 </v>
  <v type="int" >        6 </v>
  <v type="int" >        3 </v>
  <v type="int" >        2 </v>
 </varray>
 <kpoints>
  <generation param="Gamma">
   <v type="int" name="divisions">      12       12        1 </v>
   <v name="usershift">      0.00000000       0.00000000       0.00000000 </v>
   <v name="genvec1">      0.08333333      -0.00000000       0.00000000 </v>
   <v name="genvec2">     -0.00000000       0.08333333       0.00000000 </v>
   <v name="genvec3">      0.00000000       0.00000000       1.00000000 </v>
   <v name="shift">      0.00000000       0.00000000       0.00000000 </v>
  </generation>
  <varray name="kpointlist" >
   <v>       0.00000000       0.00000000       0.00000000 </v>
   <v>       0.08333333      -0.00000000       0.00000000 </v>
   <v>       0.16666667      -0.00000000       0.00000000 </v>
   <v>       0.25000000      -0.00000000       0.00000000 </v>
   <v>       0.33333333      -0.00000000       0.00000000 </v>
   <v>       0.41666667      -0.00000000       0.00000000 </v>
   <v>       0.50000000      -0.00000000       0.00000000 </v>
   <v>       0.08333333       0.08333333       0.00000000 </v>
   <v>       0.16666667       0.08333333       0.00000000 </v>
   <v>       0.25000000       0.08333333       0.00000000 </v>
   <v>       0.33333333       0.08333333       0.00000000 </v>
   <v>       0.41666667       0.08333333       0.00000000 </v>
   <v>       0.16666667       0.16666667       0.00000000 </v>
   <v>       0.25000000       0.16666667       0.00000000 </v>
   <v>       0.33333333       0.16666667       0.00000000 </v>
   <v>       0.41666667       0.16666667       0.00000000 </v>
   <v>       0.25000000       0.25000000       0.00000000 </v>
   <v>       0.33333333       0.25000000       0.00000000 </v>
   <v>       0.33333333       0.33333333       0.00000000 </v>
  </varray>
  <varray name="weights" >
   <v>       0.00694444 </v>
   <v>       0.04166667 </v>
   <v>       0.04166667 </v>
   <v>       0.04166667 </v>
   <v>       0.04166667 </v>
   <v>       0.04166667 </v>
   <v>       0.02083333 </v>
   <v>       0.04166667 </v>
   <v>       0.08333333 </v>
   <v>       0.08333333 </v>
   <v>       0.08333333 </v>
   <v>       0.08333333 </v>
   <v>       0.04166667 </v>
   <v>       0.08333333 </v>
   <v>       0.08333333 </v>
   <v>       0.04166667 </v>
   <v>       0.04166667 </v>
   <v>       0.08333333 </v>
   <v>       0.01388889 </v>
  </varray>
 </kpoints>
 <parameters>
  <separator name="general" >
   <i type="string" name="SYSTEM">MoTe2</i>
   <i type="logical" name="LCOMPAT"> F  </i>
  </separator>
  <separator name="electronic" >
   <i type="string" name="PREC">accura</i>
   <i name="ENMAX">    400.00000000</i>
   <i name="ENAUG">    964.74100000</i>
   <i name="EDIFF">      0.00000001</i>
   <i type="int" name="IALGO">    38</i>
   <i type="int" name="IWAVPR">    10</i>
   <i type="int" name="NBANDS">    65</i>
   <i name="NELECT">     52.00000000</i>
   <i type="int" name="TURBO">     0</i>
   <i type="int" name="IRESTART">     0</i>
   <i type="int" name="NREBOOT">     0</i>
   <i type="int" name="NMIN">     0</i>
   <i name="EREF">      0.00000000</i>
   <separator name="electronic smearing" >
    <i type="int" name="ISMEAR">     0</i>
    <i name="SIGMA">      0.05000000</i>
    <i name="KSPACING">      0.50000000</i>
    <i type="logical" name="KGAMMA"> T  </i>
   </separator>
   <separator name="electronic projectors" >
    <i type="logical" name="LREAL"> F  </i>
    <v name="ROPT">      0.00000000      0.00000000</v>
    <i type="int" name="LMAXPAW">  -100</i>
    <i type="int" name="LMAXMIX">     2</i>
    <i type="logical" name="NLSPLINE"> F  </i>
   </separator>
   <separator name="electronic startup" >
    <i type="int" name="ISTART">     0</i>
    <i type="int" name="ICHARG">     2</i>
    <i type="int" name="INIWAV">     1</i>
   </separator>
   <separator name="electronic spin" >
    <i type="int" name="ISPIN">     1</i>
    <i type="logical" name="LNONCOLLINEAR"> F  </i>
    <v name="MAGMOM">      1.00000000      1.00000000      1.00000000      1.00000000      1.00000000      1.00000000</v>
    <i name="NUPDOWN">     -1.00000000</i>
    <i type="logical" name="LSORBIT"> F  </i>
    <v name="SAXIS">      0.00000000      0.00000000      1.00000000</v>
    <i type="logical" name="LSPIRAL"> F  </i>
    <v name="QSPIRAL">      0.00000000      0.00000000      0.00000000</v>
    <i type="logical" name="LZEROZ"> F  </i>
   </separator>
   <separator name="electronic exchange-correlation" >
    <i type="logical" name="LASPH"> T  </i>
    <i type="logical" name="LMETAGGA"> F  </i>
   </separator>
   <separator name="electronic convergence" >
    <i type="int" name="NELM">    60</i>
    <i type="int" name="NELMDL">    -5</i>
    <i type="int" name="NELMIN">     2</i>
    <i name="ENINI">    400.00000000</i>
    <separator name="electronic convergence detail" >
     <i type="logical" name="LDIAG"> T  </i>
     <i type="logical" name="LSUBROT"> F  </i>
     <i name="WEIMIN">      0.00000000</i>
     <i name="EBREAK">      0.00000000</i>
     <i name="DEPER">      0.30000000</i>
     <i type="int" name="NRMM">     4</i>
     <i name="TIME">      0.40000000</i>
    </separator>
   </separator>
   <separator name="electronic mixer" >
    <i name="AMIX">      0.40000000</i>
    <i name="BMIX">      1.00000000</i>
    <i name="AMIN">      0.10000000</i>
    <i name="AMIX_MAG">      1.60000000</i>
    <i name="BMIX_MAG">      1.00000000</i>
    <separator name="electronic mixer details" >
     <i type="int" name="IMIX">     4</i>
     <i type="logical" name="MIXFIRST"> F  </i>
     <i type="int" name="MAXMIX">   -45</i>
     <i name="WC">    100.00000000</i>
     <i type="int" name="INIMIX">     1</i>
     <i type="int" name="MIXPRE">     1</i>
     <i type="int" name="MREMOVE">     5</i>
    </separator>
   </separator>
   <separator name="electronic dipolcorrection" >
    <i type="logical" name="LDIPOL"> F  </i>
    <i type="logical" name="LMONO"> F  </i>
    <i type="int" name="IDIPOL">     0</i>
    <i name="EPSILON">      1.00000000</i>
    <v name="DIPOL">   -100.00000000   -100.00000000   -100.00000000</v>
    <i name="EFIELD">      0.00000000</i>
   </separator>
  </separator>
  <separator name="grids" >
   <i type="int" name="NGX">    24</i>
   <i type="int" name="NGY">    24</i>
   <i type="int" name="NGZ">    96</i>
   <i type="int" name="NGXF">    48</i>
   <i type="int" name="NGYF">    48</i>
   <i type="int" name="NGZF">   192</i>
   <i type="logical" name="ADDGRID"> F  </i>
  </separator>
  <separator name="ionic" >
   <i type="int" name="NSW">     1</i>
   <i type="int" name="IBRION">    -1</i>
   <i type="int" name="MDALGO">     0</i>
   <i type="int" name="ISIF">     2</i>
   <i name="PSTRESS">      0.00000000</i>
   <i name="EDIFFG">      0.00000010</i>
   <i type="int" name="NFREE">     0</i>
   <i name="POTIM">      0.50000000</i>
   <i name="SMASS">     -3.00000000</i>
   <i name="SCALEE">      1.00000000</i>
  </separator>
  <separator name="ionic md" >
   <i name="TEBEG">      0.00010000</i>
   <i name="TEEND">      0.00010000</i>
   <i type="int" name="NBLOCK">     1</i>
   <i type="int" name="KBLOCK">     1</i>
   <i type="int" name="NPACO">   256</i>
   <i name="APACO">     16.00000000</i>
  </separator>
  <separator name="symmetry" >
   <i type="int" name="ISYM">     2</i>
   <i name="SYMPREC">      0.00001000</i>
  </separator>
  <separator name="dos" >
   <i type="int" name="LORBIT">     0</i>
   <v name="RWIGS">     -1.00000000     -1.00000000</v>
   <i type="int" name="NEDOS">  3000</i>
   <i name="EMIN">     10.00000000</i>
   <i name="EMAX">    -10.00000000</i>
   <i name="EFERMI">      0.00000000</i>
  </separator>
  <separator name="writing" >
   <i type="int" name="NWRITE">     2</i>
   <i type="logical" name="LWAVE"> T  </i>
   <i type="logical" name="LDOWNSAMPLE"> F  </i>
   <i type="logical" name="LCHARG"> T  </i>
   <i type="logical" name="LPARD"> F  </i>
   <i type="logical" name="LVTOT"> F  </i>
   <i type="logical" name="LVHAR"> F  </i>
   <i type="logical" name="LELF"> F  </i>
   <i type="logical" name="LOPTICS"> F  </i>
   <v name="STM">      0.00000000      0.00000000      0.00000000      0.00000000      0.00000000      0.00000000      0.00000000</v>
  </separator>
  <separator name="performance" >
   <i type="int" name="NPAR">     1</i>
   <i type="int" name="NSIM">     4</i>
   <i type="int" name="NBLK">    -1</i>
   <i type="logical" name="LPLANE"> T  </i>
   <i type="logical" name="LSCALAPACK"> T  </i>
   <i type="logical" name="LSCAAWARE"> F  </i>
   <i type="logical" name="LSCALU"> F  </i>
   <i type="logical" name="LASYNC"> F  </i>
   <i type="logical" name="LORBITALREAL"> F  </i>
  </separator>
  <separator name="miscellaneous" >
   <i type="int" name="IDIOT">     3</i>
   <i type="int" name="ISPECIAL">     0</i>
   <i type="logical" name="LMUSIC"> F  </i>
   <v name="POMASS">     95.94000000     32.06600000</v>
   <v name="DARWINR">      0.00000000      0.00000000</v>
   <v name="DARWINV">      1.00000000      1.00000000</v>
   <i type="logical" name="LCORR"> T  </i>
  </separator>
  <i type="logical" name="GGA_COMPAT"> T  </i>
  <i type="logical" name="LBERRY"> F  </i>
  <i type="int" name="ICORELEVEL">     0</i>
  <i type="logical" name="LDAU"> F  </i>
  <i type="int" name="I_CONSTRAINED_M">     0</i>
  <separator name="electronic exchange-correlation" >
   <i type="string" name="GGA">--</i>
   <i type="int" name="VOSKOWN">     0</i>
   <i type="logical" name="LHFCALC"> F  </i>
   <i type="string" name="PRECFOCK"></i>
   <i type="logical" name="LSYMGRAD"> F  </i>
   <i type="logical" name="LHFONE"> F  </i>
   <i type="logical" name="LRHFCALC"> F  </i>
   <i type="logical" name="LTHOMAS"> F  </i>
   <i type="logical" name="LMODELHF"> F  </i>
   <i name="ENCUT4O">     -1.00000000</i>
   <i type="int" name="EXXOEP">     0</i>
   <i type="int" name="FOURORBIT">     0</i>
   <i name="AEXX">      0.00000000</i>
   <i name="HFALPHA">      0.00000000</i>
   <i name="MCALPHA">      0.00000000</i>
   <i name="ALDAX">      1.00000000</i>
   <i name="AGGAX">      1.00000000</i>
   <i name="ALDAC">      1.00000000</i>
   <i name="AGGAC">      1.00000000</i>
   <i type="int" name="NKREDX">     1</i>
   <i type="int" name="NKREDY">     1</i>
   <i type="int" name="NKREDZ">     1</i>
   <i type="logical" name="SHIFTRED"> F  </i>
   <i type="logical" name="ODDONLY"> F  </i>
   <i type="logical" name="EVENONLY"> F  </i>
   <i type="int" name="LMAXFOCK">     0</i>
   <i type="int" name="NMAXFOCKAE">     0</i>
   <i type="logical" name="LFOCKAEDFT"> F  </i>
   <i name="HFSCREEN">      0.00000000</i>
   <i name="HFSCREENC">      0.00000000</i>
   <i type="int" name="NBANDSGWLOW">     0</i>
  </separator>
  <separator name="vdW DFT" >
   <i type="logical" name="LUSE_VDW"> F  </i>
   <i name="Zab_VDW">     -0.84910000</i>
   <i name="PARAM1">      0.12340000</i>
   <i name="PARAM2">      1.00000000</i>
   <i name="PARAM3">      0.00000000</i>
  </separator>
  <separator name="model GW" >
   <i type="int" name="MODEL_GW">     0</i>
   <i name="MODEL_EPS0">     12.28492805</i>
   <i name="MODEL_ALPHA">      1.00000000</i>
  </separator>
  <separator name="linear response parameters" >
   <i type="logical" name="LEPSILON"> F  </i>
   <i type="logical" name="LRPA"> F  </i>
   <i type="logical" name="LNABLA"> F  </i>
   <i type="logical" name="LVEL"> F  </i>
   <i type="int" name="KINTER">     0</i>
   <i name="CSHIFT">      0.10000000</i>
   <i name="OMEGAMAX">     -1.00000000</i>
   <i name="DEG_THRESHOLD">      0.00200000</i>
   <i name="RTIME">     -0.10000000</i>
   <i name="WPLASMAI">      0.00000000</i>
   <v name="DFIELD">      0.00000000      0.00000000      0.00000000</v>
   <v name="WPLASMA">      0.00000000      0.00000000      0.00000000      0.00000000      0.00000000      0.00000000      0.00000000      0.00000000      0.00000000</v>
  </separator>
  <separator name="orbital magnetization" >
   <i type="logical" name="NUCIND"> F  </i>
   <v name="MAGPOS">      0.00000000      0.00000000      0.00000000</v>
   <i type="logical" name="LNICSALL"> T  </i>
   <i type="logical" name="ORBITALMAG"> F  </i>
   <i type="logical" name="LMAGBLOCH"> F  </i>
   <i type="logical" name="LCHIMAG"> F  </i>
   <i type="logical" name="LGAUGE"> T  </i>
   <i type="int" name="MAGATOM">     0</i>
   <v name="MAGDIPOL">      0.00000000      0.00000000      0.00000000</v>
   <v name="AVECCONST">      0.00000000      0.00000000      0.00000000</v>
  </separator>
  <separator name="response functions" >
   <i type="logical" name="LADDER"> F  </i>
   <i type="logical" name="LRPAFORCE"> F  </i>
   <i type="logical" name="LFXC"> F  </i>
   <i type="logical" name="LHARTREE"> T  </i>
   <i type="int" name="IBSE">     0</i>
   <v type="int" name="KPOINT">    -1     0     0     0</v>
   <i type="logical" name="LTCTE"> F  </i>
   <i type="logical" name="LTETE"> F  </i>
   <i type="logical" name="LTRIPLET"> F  </i>
   <i type="logical" name="LFXCEPS"> F  </i>
   <i type="logical" name="LFXHEG"> F  </i>
   <i type="int" name="NATURALO">     2</i>
   <i type="logical" name="L2ORDER"> F  </i>
   <i type="logical" name="LMP2LT"> F  </i>
   <i type="logical" name="LUSEW"> F  </i>
   <i name="ENCUTGW">     -2.00000000</i>
   <i name="ENCUTGWSOFT">     -2.00000000</i>
   <i name="ENCUTLF">     -1.00000000</i>
   <i type="int" name="LMAXMP2">    -1</i>
   <i name="SCISSOR">      0.00000000</i>
   <i type="int" name="NOMEGA">     0</i>
   <i type="int" name="NOMEGAR">     0</i>
   <i type="int" name="NBANDSGW">    -1</i>
   <i type="int" name="NBANDSO">    -1</i>
   <i type="int" name="NBANDSV">    -1</i>
   <i type="int" name="NELM">     1</i>
   <i type="int" name="NELMHF">     1</i>
   <i type="int" name="DIM">     3</i>
   <i type="int" name="ANTIRES">     0</i>
   <i name="OMEGAMAX">    -30.00000000</i>
   <i name="OMEGAMIN">    -30.00000000</i>
   <i name="OMEGATL">   -200.00000000</i>
   <i type="int" name="OMEGAGRID">   140</i>
   <i name="CSHIFT">     -0.10000000</i>
   <i type="logical" name="SELFENERGY"> F  </i>
   <i type="logical" name="LSPECTRAL"> F  </i>
   <i type="logical" name="LSPECTRALGW"> F  </i>
   <i type="logical" name="LSINGLES"> F  </i>
   <i type="logical" name="LFERMIGW"> F  </i>
   <i type="logical" name="ODDONLYGW"> F  </i>
   <i type="logical" name="EVENONLYGW"> F  </i>
   <i type="int" name="NKREDLFX">     1</i>
   <i type="int" name="NKREDLFY">     1</i>
   <i type="int" name="NKREDLFZ">     1</i>
   <i type="int" name="MAXMEM">  2800</i>
   <i type="int" name="TELESCOPE">     0</i>
   <i type="int" name="TAUPAR">     1</i>
   <i type="int" name="OMEGAPAR">    -1</i>
   <i name="LAMBDA">      1.00000000</i>
  </separator>
  <separator name="External order field" >
   <i name="OFIELD_KAPPA">      0.00000000</i>
   <v name="OFIELD_K">      0.00000000      0.00000000      0.00000000</v>
   <i name="OFIELD_Q6_NEAR">      0.00000000</i>
   <i name="OFIELD_Q6_FAR">      0.00000000</i>
   <i name="OFIELD_A">      0.00000000</i>
  </separator>
 </parameters>
 <atominfo>
  <atoms>       6 </atoms>
  <types>       2 </types>
  <array name="atoms" >
   <dimension dim="1">ion</dimension>
   <field type="string">element</field>
   <field type="int">atomtype</field>
   <set>
    <rc><c>Mo</c><c>   1</c></rc>
    <rc><c>Mo</c><c>   1</c></rc>
    <rc><c>S </c><c>   2</c></rc>
    <rc><c>S </c><c>   2</c></rc>
    <rc><c>S </c><c>   2</c></rc>
    <rc><c>S </c><c>   2</c></rc>
   </set>
  </array>
  <array name="atomtypes" >
   <dimension dim="1">type</dimension>
   <field type="int">atomspertype</field>
   <field type="string">element</field>
   <field>mass</field>
   <field>valence</field>
   <field type="string">pseudopotential</field>
   <set>
    <rc><c>   2</c><c>Mo</c><c>     95.94000000</c><c>     14.00000000</c><c>  PAW_PBE Mo_sv_GW 05Dec2013            </c></rc>
    <rc><c>   4</c><c>S </c><c>     32.06600000</c><c>      6.00000000</c><c>  PAW_PBE S_GW 19Mar2012                </c></rc>
   </set>
  </array>
 </atominfo>
 <structure name="initialpos" >
  <crystal>
   <varray name="basis" >
    <v>       1.59265383      -2.75855735       0.00000000 </v>
    <v>       1.59265383       2.75855735       0.00000000 </v>
    <v>       0.00000000       0.00000000      13.98103146 </v>
   </varray>
   <i name="volume">    122.84928053 </i>
   <varray name="rec_basis" >
    <v>       0.31394142      -0.18125416       0.00000000 </v>
    <v>       0.31394142       0.18125416       0.00000000 </v>
    <v>       0.00000000       0.00000000       0.07152548 </v>
   </varray>
  </crystal>
  <varray name="positions" >
   <v>       0.33333333       0.66666667       0.25000000 </v>
   <v>       0.66666667       0.33333333       0.75000000 </v>
   <v>       0.33333333       0.66666667       0.63810651 </v>
   <v>       0.66666667       0.33333333       0.36189349 </v>
   <v>       0.66666667       0.33333333       0.13810650 </v>
   <v>       0.33333333       0.66666667       0.86189353 </v>
  </varray>
  <varray name="velocities" >
   <v>       0.00000000       0.00000000       0.00000000 </v>
   <v>       0.00000000       0.00000000       0.00000000 </v>
   <v>       0.00000000       0.00000000       0.00000000 </v>
   <v>       0.00000000       0.00000000       0.00000000 </v>
   <v>       0.00000000       0.00000000       0.00000000 </v>
   <v>       0.00000000       0.00000000       0.00000000 </v>
  </varray>
 </structure>
 <calculation>
  <scstep>
   <time name="dav">    0.58    0.58</time>
   <time name="total">    1.05    1.16</time>
   <energy>
    <i name="alphaZ">    155.66116136 </i>
    <i name="ewald">  -2596.29725923 </i>
    <i name="hartreedc">  -2127.64905820 </i>
    <i name="XCdc">    167.26178230 </i>
    <i name="pawpsdc">   3905.22371462 </i>
    <i name="pawaedc">  -3865.63498383 </i>
    <i name="eentropy">     -0.00223055 </i>
    <i name="bandstr">   -143.76085870 </i>
    <i name="atom">   4830.14373692 </i>
    <i name="e_fr_energy">    324.94600469 </i>
    <i name="e_wo_entrp">    324.94823524 </i>
    <i name="e_0_energy">    324.94711996 </i>
   </energy>
  </scstep>
  <scstep>
   <time name="dav">    0.67    0.68</time>
   <time name="total">    0.67    0.68</time>
   <energy>
    <i name="e_fr_energy">    -24.82688679 </i>
    <i name="e_wo_entrp">    -24.82688679 </i>
    <i name="e_0_energy">    -24.82688679 </i>
   </energy>
  </scstep>
  <scstep>
   <time name="dav">    0.72    0.73</time>
   <time name="total">    0.72    0.73</time>
   <energy>
    <i name="e_fr_energy">    -51.39835750 </i>
    <i name="e_wo_entrp">    -51.39835750 </i>
    <i name="e_0_energy">    -51.39835750 </i>
   </energy>
  </scstep>
  <scstep>
   <time name="dav">    0.75    0.76</time>
   <time name="total">    0.75    0.76</time>
   <energy>
    <i name="e_fr_energy">    -52.41857484 </i>
    <i name="e_wo_entrp">    -52.41857484 </i>
    <i name="e_0_energy">    -52.41857484 </i>
   </energy>
  </scstep>
  <scstep>
   <time name="dav">    0.75    0.77</time>
   <time name="total">    0.82    0.84</time>
   <energy>
    <i name="e_fr_energy">    -52.46015645 </i>
    <i name="e_wo_entrp">    -52.46015645 </i>
    <i name="e_0_energy">    -52.46015645 </i>
   </energy>
  </scstep>
  <scstep>
   <time name="dav">    0.74    0.74</time>
   <time name="total">    1.39    1.40</time>
   <energy>
    <i name="e_fr_energy">    -46.77613802 </i>
    <i name="e_wo_entrp">    -46.77613802 </i>
    <i name="e_0_energy">    -46.77613802 </i>
   </energy>
  </scstep>
  <scstep>
   <time name="dav">    0.72    0.72</time>
   <time name="total">    1.37    1.38</time>
   <energy>
    <i name="e_fr_energy">    -45.31020975 </i>
    <i name="e_wo_entrp">    -45.31020975 </i>
    <i name="e_0_energy">    -45.31020975 </i>
   </energy>
  </scstep>
  <scstep>
   <time name="dav">    0.73    0.73</time>
   <time name="total">    1.38    1.39</time>
   <energy>
    <i name="e_fr_energy">    -45.22644453 </i>
    <i name="e_wo_entrp">    -45.22644453 </i>
    <i name="e_0_energy">    -45.22644453 </i>
   </energy>
  </scstep>
  <scstep>
   <time name="dav">    0.76    0.76</time>
   <time name="total">    1.42    1.42</time>
   <energy>
    <i name="e_fr_energy">    -45.20718785 </i>
    <i name="e_wo_entrp">    -45.20718785 </i>
    <i name="e_0_energy">    -45.20718785 </i>
   </energy>
  </scstep>
  <scstep>
   <time name="dav">    0.65    0.65</time>
   <time name="total">    1.30    1.31</time>
   <energy>
    <i name="e_fr_energy">    -45.20566133 </i>
    <i name="e_wo_entrp">    -45.20566133 </i>
    <i name="e_0_energy">    -45.20566133 </i>
   </energy>
  </scstep>
  <scstep>
   <time name="dav">    0.72    0.72</time>
   <time name="total">    1.36    1.37</time>
   <energy>
    <i name="e_fr_energy">    -45.20545187 </i>
    <i name="e_wo_entrp">    -45.20545187 </i>
    <i name="e_0_energy">    -45.20545187 </i>
   </energy>
  </scstep>
  <scstep>
   <time name="dav">    0.67    0.67</time>
   <time name="total">    1.31    1.33</time>
   <energy>
    <i name="e_fr_energy">    -45.20545571 </i>
    <i name="e_wo_entrp">    -45.20545571 </i>
    <i name="e_0_energy">    -45.20545571 </i>
   </energy>
  </scstep>
  <scstep>
   <time name="dav">    0.64    0.64</time>
   <time name="total">    1.29    1.30</time>
   <energy>
    <i name="e_fr_energy">    -45.20545766 </i>
    <i name="e_wo_entrp">    -45.20545766 </i>
    <i name="e_0_energy">    -45.20545766 </i>
   </energy>
  </scstep>
  <scstep>
   <time name="dav">    0.70    0.71</time>
   <time name="total">    1.36    1.36</time>
   <energy>
    <i name="e_fr_energy">    -45.20545824 </i>
    <i name="e_wo_entrp">    -45.20545824 </i>
    <i name="e_0_energy">    -45.20545824 </i>
   </energy>
  </scstep>
  <scstep>
   <time name="dav">    0.61    0.61</time>
   <time name="total">    1.26    1.27</time>
   <energy>
    <i name="e_fr_energy">    -45.20545828 </i>
    <i name="e_wo_entrp">    -45.20545828 </i>
    <i name="e_0_energy">    -45.20545828 </i>
   </energy>
  </scstep>
  <scstep>
   <time name="dav">    0.73    0.73</time>
   <time name="total">    1.38    1.39</time>
   <energy>
    <i name="e_fr_energy">    -45.20545844 </i>
    <i name="e_wo_entrp">    -45.20545844 </i>
    <i name="e_0_energy">    -45.20545844 </i>
   </energy>
  </scstep>
  <scstep>
   <time name="dav">    0.54    0.54</time>
   <time name="total">    1.19    1.21</time>
   <energy>
    <i name="e_fr_energy">    -45.20545847 </i>
    <i name="e_wo_entrp">    -45.20545847 </i>
    <i name="e_0_energy">    -45.20545847 </i>
   </energy>
  </scstep>
  <scstep>
   <time name="dav">    0.47    0.47</time>
   <time name="total">    1.12    1.14</time>
   <energy>
    <i name="e_fr_energy">    -45.20545850 </i>
    <i name="e_wo_entrp">    -45.20545850 </i>
    <i name="e_0_energy">    -45.20545850 </i>
   </energy>
  </scstep>
  <scstep>
   <time name="dav">    0.42    0.42</time>
   <time name="total">    1.00    1.01</time>
   <energy>
    <i name="alphaZ">    155.66116136 </i>
    <i name="ewald">  -2596.29725923 </i>
    <i name="hartreedc">  -2064.46850713 </i>
    <i name="XCdc">    165.39362494 </i>
    <i name="pawpsdc">   3843.97608171 </i>
    <i name="pawaedc">  -3805.39563756 </i>
    <i name="eentropy">     -0.00000000 </i>
    <i name="bandstr">   -574.21865951 </i>
    <i name="atom">   4830.14373692 </i>
    <i name="e_fr_energy">    -45.20545850 </i>
    <i name="e_wo_entrp">    -45.20545850 </i>
    <i name="e_0_energy">    -45.20545850 </i>
   </energy>
  </scstep>
  <structure>
   <crystal>
    <varray name="basis" >
     <v>       1.59265383      -2.75855735       0.00000000 </v>
     <v>       1.59265383       2.75855735       0.00000000 </v>
     <v>       0.00000000       0.00000000      13.98103146 </v>
    </varray>
    <i name="volume">    122.84928053 </i>
    <varray name="rec_basis" >
     <v>       0.31394142      -0.18125416       0.00000000 </v>
     <v>       0.31394142       0.18125416       0.00000000 </v>
     <v>       0.00000000       0.00000000       0.07152548 </v>
    </varray>
   </crystal>
   <varray name="positions" >
    <v>       0.33333333       0.66666667       0.25000000 </v>
    <v>       0.66666667       0.33333333       0.75000000 </v>
    <v>       0.33333333       0.66666667       0.63810651 </v>
    <v>       0.66666667       0.33333333       0.36189349 </v>
    <v>       0.66666667       0.33333333       0.13810650 </v>
    <v>       0.33333333       0.66666667       0.86189353 </v>
   </varray>
  </structure>
  <varray name="forces" >
   <v>       0.00000000      -0.00000000       0.00000000 </v>
   <v>      -0.00000000      -0.00000000       0.00000000 </v>
   <v>      -0.00000000       0.00000000       0.01754377 </v>
   <v>      -0.00000000       0.00000000      -0.01754377 </v>
   <v>       0.00000000       0.00000000       0.01754377 </v>
   <v>       0.00000000      -0.00000000      -0.01754377 </v>
  </varray>
  <varray name="stress" >
   <v>      -0.23511889       0.00000000       0.00000000 </v>
   <v>       0.00000000      -0.23511889       0.00000000 </v>
   <v>       0.00000000       0.00000000       0.10112316 </v>
  </varray>
  <energy>
   <i name="e_fr_energy">    -45.20545850 </i>
   <i name="e_wo_entrp">    -45.20545850 </i>
   <i name="e_0_energy">     -0.00000000 </i>
  </energy>
  <time name="totalsc">  350.07  351.84</time>
  <eigenvalues>
   <array>
    <dimension dim="1">band</dimension>
    <dimension dim="2">kpoint</dimension>
    <dimension dim="3">spin</dimension>
    <field>eigene</field>
    <field>occ</field>
    <set>
     <set comment="spin 1">
      <set comment="kpoint 1">
       <r>  -55.7096    1.0000 </r>
       <r>  -55.7095    1.0000 </r>
       <r>  -29.8419    1.0000 </r>
       <r>  -29.8417    1.0000 </r>
       <r>  -29.6380    1.0000 </r>
       <r>  -29.6380    1.0000 </r>
       <r>  -29.6380    1.0000 </r>
       <r>  -29.6380    1.0000 </r>
       <r>   -8.9197    1.0000 </r>
       <r>   -8.8712    1.0000 </r>
       <r>   -7.6448    1.0000 </r>
       <r>   -7.5595    1.0000 </r>
       <r>   -0.5750    1.0000 </r>
       <r>   -0.2578    1.0000 </r>
       <r>    2.5752    1.0000 </r>
       <r>    2.5752    1.0000 </r>
       <r>    2.5769    1.0000 </r>
       <r>    2.5769    1.0000 </r>
       <r>    2.9582    1.0000 </r>
       <r>    3.6735    1.0000 </r>
       <r>    3.6735    1.0000 </r>
       <r>    3.6794    1.0000 </r>
       <r>    3.6794    1.0000 </r>
       <r>    3.9015    1.0000 </r>
       <r>    4.9075    1.0000 </r>
       <r>    5.4844    1.0000 </r>
       <r>    7.9216    0.0000 </r>
       <r>    7.9216    0.0000 </r>
       <r>    7.9263    0.0000 </r>
       <r>    7.9263    0.0000 </r>
       <r>    8.1546    0.0000 </r>
       <r>    8.1546    0.0000 </r>
       <r>    8.1816    0.0000 </r>
       <r>    8.1816    0.0000 </r>
       <r>   11.1452    0.0000 </r>
       <r>   11.4080    0.0000 </r>
       <r>   12.6514    0.0000 </r>
       <r>   13.1522    0.0000 </r>
       <r>   14.1089    0.0000 </r>
       <r>   14.2321    0.0000 </r>
       <r>   15.8608    0.0000 </r>
       <r>   15.8608    0.0000 </r>
       <r>   15.9557    0.0000 </r>
       <r>   15.9557    0.0000 </r>
       <r>   17.0683    0.0000 </r>
       <r>   17.8060    0.0000 </r>
       <r>   17.8060    0.0000 </r>
       <r>   18.0139    0.0000 </r>
       <r>   18.0139    0.0000 </r>
       <r>   18.1210    0.0000 </r>
       <r>   19.2186    0.0000 </r>
       <r>   20.8393    0.0000 </r>
       <r>   20.9995    0.0000 </r>
       <r>   20.9995    0.0000 </r>
       <r>   21.0987    0.0000 </r>
       <r>   21.0987    0.0000 </r>
       <r>   21.2424    0.0000 </r>
       <r>   21.2424    0.0000 </r>
       <r>   21.4173    0.0000 </r>
       <r>   21.6038    0.0000 </r>
       <r>   21.6103    0.0000 </r>
       <r>   21.6103    0.0000 </r>
       <r>   22.5725    0.0000 </r>
       <r>   24.4072    0.0000 </r>
       <r>   24.5690    0.0000 </r>
      </set>
      <set comment="kpoint 2">
       <r>  -55.7071    1.0000 </r>
       <r>  -55.7071    1.0000 </r>
       <r>  -29.8370    1.0000 </r>
       <r>  -29.8368    1.0000 </r>
       <r>  -29.6632    1.0000 </r>
       <r>  -29.6632    1.0000 </r>
       <r>  -29.6438    1.0000 </r>
       <r>  -29.6437    1.0000 </r>
       <r>   -8.8179    1.0000 </r>
       <r>   -8.7698    1.0000 </r>
       <r>   -7.6014    1.0000 </r>
       <r>   -7.5189    1.0000 </r>
       <r>   -0.4579    1.0000 </r>
       <r>   -0.1420    1.0000 </r>
       <r>    2.3468    1.0000 </r>
       <r>    2.3498    1.0000 </r>
       <r>    2.6480    1.0000 </r>
       <r>    2.6811    1.0000 </r>
       <r>    2.6837    1.0000 </r>
       <r>    3.1163    1.0000 </r>
       <r>    3.5107    1.0000 </r>
       <r>    3.5176    1.0000 </r>
       <r>    3.8501    1.0000 </r>
       <r>    4.2764    1.0000 </r>
       <r>    4.8928    1.0000 </r>
       <r>    5.3755    1.0000 </r>
       <r>    7.7802    0.0000 </r>
       <r>    7.8141    0.0000 </r>
       <r>    7.8559    0.0000 </r>
       <r>    7.9659    0.0000 </r>
       <r>    8.0371    0.0000 </r>
       <r>    8.0693    0.0000 </r>
       <r>    8.0960    0.0000 </r>
       <r>    8.1082    0.0000 </r>
       <r>   11.5973    0.0000 </r>
       <r>   11.8858    0.0000 </r>
       <r>   12.8321    0.0000 </r>
       <r>   13.2307    0.0000 </r>
       <r>   14.5573    0.0000 </r>
       <r>   14.7055    0.0000 </r>
       <r>   15.5296    0.0000 </r>
       <r>   15.6120    0.0000 </r>
       <r>   16.1831    0.0000 </r>
       <r>   16.2782    0.0000 </r>
       <r>   17.0556    0.0000 </r>
       <r>   17.2668    0.0000 </r>
       <r>   17.3192    0.0000 </r>
       <r>   17.8248    0.0000 </r>
       <r>   18.0754    0.0000 </r>
       <r>   18.1003    0.0000 </r>
       <r>   18.9795    0.0000 </r>
       <r>   20.2755    0.0000 </r>
       <r>   20.3726    0.0000 </r>
       <r>   20.6885    0.0000 </r>
       <r>   21.1445    0.0000 </r>
       <r>   21.1895    0.0000 </r>
       <r>   21.3081    0.0000 </r>
       <r>   21.3627    0.0000 </r>
       <r>   21.4193    0.0000 </r>
       <r>   21.4750    0.0000 </r>
       <r>   22.3917    0.0000 </r>
       <r>   22.5927    0.0000 </r>
       <r>   23.0220    0.0000 </r>
       <r>   24.8100    0.0000 </r>
       <r>   25.3371    0.0000 </r>
      </set>
      <set comment="kpoint 3">
       <r>  -55.7003    1.0000 </r>
       <r>  -55.7003    1.0000 </r>
       <r>  -29.8235    1.0000 </r>
       <r>  -29.8233    1.0000 </r>
       <r>  -29.7316    1.0000 </r>
       <r>  -29.7316    1.0000 </r>
       <r>  -29.6594    1.0000 </r>
       <r>  -29.6594    1.0000 </r>
       <r>   -8.5283    1.0000 </r>
       <r>   -8.4816    1.0000 </r>
       <r>   -7.4779    1.0000 </r>
       <r>   -7.4036    1.0000 </r>
       <r>   -0.1588    1.0000 </r>
       <r>    0.1441    1.0000 </r>
       <r>    1.8179    1.0000 </r>
       <r>    1.8332    1.0000 </r>
       <r>    2.1022    1.0000 </r>
       <r>    2.4138    1.0000 </r>
       <r>    2.9763    1.0000 </r>
       <r>    2.9814    1.0000 </r>
       <r>    3.1275    1.0000 </r>
       <r>    3.1360    1.0000 </r>
       <r>    3.9060    1.0000 </r>
       <r>    4.3362    1.0000 </r>
       <r>    4.7637    1.0000 </r>
       <r>    5.0075    1.0000 </r>
       <r>    7.3199    0.0000 </r>
       <r>    7.6755    0.0000 </r>
       <r>    7.6795    0.0000 </r>
       <r>    7.7666    0.0000 </r>
       <r>    7.8052    0.0000 </r>
       <r>    7.8425    0.0000 </r>
       <r>    8.4970    0.0000 </r>
       <r>    8.5242    0.0000 </r>
       <r>   12.3323    0.0000 </r>
       <r>   12.9594    0.0000 </r>
       <r>   13.3852    0.0000 </r>
       <r>   13.4967    0.0000 </r>
       <r>   14.8831    0.0000 </r>
       <r>   15.0965    0.0000 </r>
       <r>   15.1680    0.0000 </r>
       <r>   15.2559    0.0000 </r>
       <r>   16.3414    0.0000 </r>
       <r>   16.7054    0.0000 </r>
       <r>   17.0438    0.0000 </r>
       <r>   17.1312    0.0000 </r>
       <r>   17.1772    0.0000 </r>
       <r>   17.6156    0.0000 </r>
       <r>   17.9806    0.0000 </r>
       <r>   18.3256    0.0000 </r>
       <r>   18.6563    0.0000 </r>
       <r>   19.1406    0.0000 </r>
       <r>   19.4294    0.0000 </r>
       <r>   19.7869    0.0000 </r>
       <r>   20.4972    0.0000 </r>
       <r>   20.8193    0.0000 </r>
       <r>   21.6284    0.0000 </r>
       <r>   21.6354    0.0000 </r>
       <r>   21.8835    0.0000 </r>
       <r>   21.9298    0.0000 </r>
       <r>   24.1177    0.0000 </r>
       <r>   24.2652    0.0000 </r>
       <r>   24.4528    0.0000 </r>
       <r>   25.0056    0.0000 </r>
       <r>   25.8479    0.0000 </r>
      </set>
      <set comment="kpoint 4">
       <r>  -55.6912    1.0000 </r>
       <r>  -55.6912    1.0000 </r>
       <r>  -29.8238    1.0000 </r>
       <r>  -29.8237    1.0000 </r>
       <r>  -29.8050    1.0000 </r>
       <r>  -29.8049    1.0000 </r>
       <r>  -29.6807    1.0000 </r>
       <r>  -29.6807    1.0000 </r>
       <r>   -8.0993    1.0000 </r>
       <r>   -8.0561    1.0000 </r>
       <r>   -7.2963    1.0000 </r>
       <r>   -7.2348    1.0000 </r>
       <r>    0.0906    1.0000 </r>
       <r>    0.3118    1.0000 </r>
       <r>    1.3372    1.0000 </r>
       <r>    1.4253    1.0000 </r>
       <r>    1.5132    1.0000 </r>
       <r>    1.7099    1.0000 </r>
       <r>    2.6977    1.0000 </r>
       <r>    2.7077    1.0000 </r>
       <r>    3.3896    1.0000 </r>
       <r>    3.3996    1.0000 </r>
       <r>    3.6906    1.0000 </r>
       <r>    4.0300    1.0000 </r>
       <r>    4.4210    1.0000 </r>
       <r>    4.4912    1.0000 </r>
       <r>    7.1319    0.0000 </r>
       <r>    7.5010    0.0000 </r>
       <r>    7.5391    0.0000 </r>
       <r>    7.5965    0.0000 </r>
       <r>    7.9296    0.0000 </r>
       <r>    8.2505    0.0000 </r>
       <r>    8.9092    0.0000 </r>
       <r>    8.9570    0.0000 </r>
       <r>   12.5898    0.0000 </r>
       <r>   13.3287    0.0000 </r>
       <r>   13.4859    0.0000 </r>
       <r>   14.1764    0.0000 </r>
       <r>   14.2682    0.0000 </r>
       <r>   14.5221    0.0000 </r>
       <r>   14.8436    0.0000 </r>
       <r>   14.8851    0.0000 </r>
       <r>   16.7560    0.0000 </r>
       <r>   16.9252    0.0000 </r>
       <r>   17.2849    0.0000 </r>
       <r>   17.5454    0.0000 </r>
       <r>   17.9053    0.0000 </r>
       <r>   17.9971    0.0000 </r>
       <r>   18.2271    0.0000 </r>
       <r>   18.4029    0.0000 </r>
       <r>   18.6531    0.0000 </r>
       <r>   18.8816    0.0000 </r>
       <r>   19.1638    0.0000 </r>
       <r>   19.2231    0.0000 </r>
       <r>   19.7226    0.0000 </r>
       <r>   20.0772    0.0000 </r>
       <r>   22.0807    0.0000 </r>
       <r>   22.2470    0.0000 </r>
       <r>   22.4605    0.0000 </r>
       <r>   22.5810    0.0000 </r>
       <r>   24.0654    0.0000 </r>
       <r>   24.1471    0.0000 </r>
       <r>   25.2460    0.0000 </r>
       <r>   25.3901    0.0000 </r>
       <r>   26.1996    0.0000 </r>
      </set>
      <set comment="kpoint 5">
       <r>  -55.6820    1.0000 </r>
       <r>  -55.6819    1.0000 </r>
       <r>  -29.9147    1.0000 </r>
       <r>  -29.9146    1.0000 </r>
       <r>  -29.7865    1.0000 </r>
       <r>  -29.7864    1.0000 </r>
       <r>  -29.7019    1.0000 </r>
       <r>  -29.7019    1.0000 </r>
       <r>   -7.6171    1.0000 </r>
       <r>   -7.5808    1.0000 </r>
       <r>   -7.0956    1.0000 </r>
       <r>   -7.0505    1.0000 </r>
       <r>   -0.0904    1.0000 </r>
       <r>    0.0101    1.0000 </r>
       <r>    0.9524    1.0000 </r>
       <r>    1.0701    1.0000 </r>
       <r>    1.2014    1.0000 </r>
       <r>    1.3778    1.0000 </r>
       <r>    2.3360    1.0000 </r>
       <r>    2.3471    1.0000 </r>
       <r>    3.4367    1.0000 </r>
       <r>    3.6750    1.0000 </r>
       <r>    3.8015    1.0000 </r>
       <r>    3.8199    1.0000 </r>
       <r>    4.1696    1.0000 </r>
       <r>    4.2512    1.0000 </r>
       <r>    7.3302    0.0000 </r>
       <r>    7.3628    0.0000 </r>
       <r>    7.3920    0.0000 </r>
       <r>    7.6953    0.0000 </r>
       <r>    8.3724    0.0000 </r>
       <r>    8.7690    0.0000 </r>
       <r>    9.2056    0.0000 </r>
       <r>    9.2756    0.0000 </r>
       <r>   12.5251    0.0000 </r>
       <r>   12.8328    0.0000 </r>
       <r>   12.9852    0.0000 </r>
       <r>   13.1818    0.0000 </r>
       <r>   13.4486    0.0000 </r>
       <r>   14.2964    0.0000 </r>
       <r>   14.5921    0.0000 </r>
       <r>   15.4317    0.0000 </r>
       <r>   16.1329    0.0000 </r>
       <r>   16.8192    0.0000 </r>
       <r>   17.2079    0.0000 </r>
       <r>   17.6381    0.0000 </r>
       <r>   17.7931    0.0000 </r>
       <r>   17.8217    0.0000 </r>
       <r>   18.4233    0.0000 </r>
       <r>   19.0687    0.0000 </r>
       <r>   19.4698    0.0000 </r>
       <r>   19.7617    0.0000 </r>
       <r>   19.8488    0.0000 </r>
       <r>   20.2259    0.0000 </r>
       <r>   20.4631    0.0000 </r>
       <r>   20.5088    0.0000 </r>
       <r>   22.4547    0.0000 </r>
       <r>   22.4580    0.0000 </r>
       <r>   22.8329    0.0000 </r>
       <r>   22.9207    0.0000 </r>
       <r>   23.5802    0.0000 </r>
       <r>   23.6303    0.0000 </r>
       <r>   24.4253    0.0000 </r>
       <r>   25.2731    0.0000 </r>
       <r>   25.7633    0.0000 </r>
      </set>
      <set comment="kpoint 6">
       <r>  -55.6752    1.0000 </r>
       <r>  -55.6752    1.0000 </r>
       <r>  -29.9804    1.0000 </r>
       <r>  -29.9803    1.0000 </r>
       <r>  -29.7729    1.0000 </r>
       <r>  -29.7728    1.0000 </r>
       <r>  -29.7174    1.0000 </r>
       <r>  -29.7173    1.0000 </r>
       <r>   -7.2143    1.0000 </r>
       <r>   -7.1887    1.0000 </r>
       <r>   -6.9322    1.0000 </r>
       <r>   -6.9048    1.0000 </r>
       <r>   -0.4449    1.0000 </r>
       <r>   -0.3765    1.0000 </r>
       <r>    0.5357    1.0000 </r>
       <r>    0.6071    1.0000 </r>
       <r>    1.1108    1.0000 </r>
       <r>    1.2837    1.0000 </r>
       <r>    2.1012    1.0000 </r>
       <r>    2.1128    1.0000 </r>
       <r>    3.2992    1.0000 </r>
       <r>    3.4294    1.0000 </r>
       <r>    4.0857    1.0000 </r>
       <r>    4.1136    1.0000 </r>
       <r>    4.3359    1.0000 </r>
       <r>    4.4197    1.0000 </r>
       <r>    7.3692    0.0000 </r>
       <r>    7.3850    0.0000 </r>
       <r>    7.6721    0.0000 </r>
       <r>    7.8637    0.0000 </r>
       <r>    8.7177    0.0000 </r>
       <r>    9.1227    0.0000 </r>
       <r>    9.3649    0.0000 </r>
       <r>    9.4520    0.0000 </r>
       <r>   11.6506    0.0000 </r>
       <r>   11.8603    0.0000 </r>
       <r>   12.8762    0.0000 </r>
       <r>   13.0579    0.0000 </r>
       <r>   13.0751    0.0000 </r>
       <r>   14.1478    0.0000 </r>
       <r>   14.1673    0.0000 </r>
       <r>   15.0109    0.0000 </r>
       <r>   15.5507    0.0000 </r>
       <r>   16.4087    0.0000 </r>
       <r>   16.4536    0.0000 </r>
       <r>   16.8517    0.0000 </r>
       <r>   17.8103    0.0000 </r>
       <r>   18.0950    0.0000 </r>
       <r>   19.1866    0.0000 </r>
       <r>   19.7221    0.0000 </r>
       <r>   20.2217    0.0000 </r>
       <r>   20.7671    0.0000 </r>
       <r>   20.8496    0.0000 </r>
       <r>   21.5118    0.0000 </r>
       <r>   21.7560    0.0000 </r>
       <r>   22.1295    0.0000 </r>
       <r>   22.7133    0.0000 </r>
       <r>   22.7627    0.0000 </r>
       <r>   22.7691    0.0000 </r>
       <r>   23.0815    0.0000 </r>
       <r>   23.7675    0.0000 </r>
       <r>   23.7862    0.0000 </r>
       <r>   24.2807    0.0000 </r>
       <r>   24.7279    0.0000 </r>
       <r>   25.4320    0.0000 </r>
      </set>
      <set comment="kpoint 7">
       <r>  -55.6727    1.0000 </r>
       <r>  -55.6726    1.0000 </r>
       <r>  -30.0043    1.0000 </r>
       <r>  -30.0042    1.0000 </r>
       <r>  -29.7679    1.0000 </r>
       <r>  -29.7678    1.0000 </r>
       <r>  -29.7230    1.0000 </r>
       <r>  -29.7230    1.0000 </r>
       <r>   -7.0513    1.0000 </r>
       <r>   -7.0334    1.0000 </r>
       <r>   -6.8669    1.0000 </r>
       <r>   -6.8500    1.0000 </r>
       <r>   -0.6012    1.0000 </r>
       <r>   -0.5368    1.0000 </r>
       <r>    0.3810    1.0000 </r>
       <r>    0.4359    1.0000 </r>
       <r>    1.0416    1.0000 </r>
       <r>    1.2075    1.0000 </r>
       <r>    2.0203    1.0000 </r>
       <r>    2.0321    1.0000 </r>
       <r>    3.2801    1.0000 </r>
       <r>    3.3260    1.0000 </r>
       <r>    4.1818    1.0000 </r>
       <r>    4.2142    1.0000 </r>
       <r>    4.5340    1.0000 </r>
       <r>    4.5498    1.0000 </r>
       <r>    7.4022    0.0000 </r>
       <r>    7.4112    0.0000 </r>
       <r>    7.8657    0.0000 </r>
       <r>    7.9610    0.0000 </r>
       <r>    8.8333    0.0000 </r>
       <r>    9.2313    0.0000 </r>
       <r>    9.4130    0.0000 </r>
       <r>    9.5063    0.0000 </r>
       <r>   11.2060    0.0000 </r>
       <r>   11.2998    0.0000 </r>
       <r>   12.8691    0.0000 </r>
       <r>   13.1878    0.0000 </r>
       <r>   13.3232    0.0000 </r>
       <r>   13.7100    0.0000 </r>
       <r>   14.0265    0.0000 </r>
       <r>   14.6623    0.0000 </r>
       <r>   15.3758    0.0000 </r>
       <r>   16.0926    0.0000 </r>
       <r>   16.2631    0.0000 </r>
       <r>   16.5289    0.0000 </r>
       <r>   17.8293    0.0000 </r>
       <r>   18.2822    0.0000 </r>
       <r>   19.1853    0.0000 </r>
       <r>   19.9965    0.0000 </r>
       <r>   20.4346    0.0000 </r>
       <r>   21.3125    0.0000 </r>
       <r>   21.7045    0.0000 </r>
       <r>   22.0649    0.0000 </r>
       <r>   22.3551    0.0000 </r>
       <r>   22.7022    0.0000 </r>
       <r>   22.9009    0.0000 </r>
       <r>   23.0393    0.0000 </r>
       <r>   23.0496    0.0000 </r>
       <r>   23.2787    0.0000 </r>
       <r>   23.3612    0.0000 </r>
       <r>   24.6497    0.0000 </r>
       <r>   24.6745    0.0000 </r>
       <r>   25.0930    0.0000 </r>
       <r>   25.2102    0.0000 </r>
      </set>
      <set comment="kpoint 8">
       <r>  -55.7025    1.0000 </r>
       <r>  -55.7025    1.0000 </r>
       <r>  -29.8277    1.0000 </r>
       <r>  -29.8276    1.0000 </r>
       <r>  -29.7088    1.0000 </r>
       <r>  -29.7087    1.0000 </r>
       <r>  -29.6557    1.0000 </r>
       <r>  -29.6557    1.0000 </r>
       <r>   -8.6221    1.0000 </r>
       <r>   -8.5749    1.0000 </r>
       <r>   -7.5178    1.0000 </r>
       <r>   -7.4408    1.0000 </r>
       <r>   -0.2467    1.0000 </r>
       <r>    0.0632    1.0000 </r>
       <r>    1.9799    1.0000 </r>
       <r>    1.9804    1.0000 </r>
       <r>    2.2861    1.0000 </r>
       <r>    2.6552    1.0000 </r>
       <r>    2.8740    1.0000 </r>
       <r>    2.8772    1.0000 </r>
       <r>    3.1295    1.0000 </r>
       <r>    3.1458    1.0000 </r>
       <r>    4.0188    1.0000 </r>
       <r>    4.4397    1.0000 </r>
       <r>    4.8217    1.0000 </r>
       <r>    5.1352    1.0000 </r>
       <r>    7.4446    0.0000 </r>
       <r>    7.6117    0.0000 </r>
       <r>    7.7185    0.0000 </r>
       <r>    7.7343    0.0000 </r>
       <r>    7.8314    0.0000 </r>
       <r>    7.8792    0.0000 </r>
       <r>    8.4220    0.0000 </r>
       <r>    8.4557    0.0000 </r>
       <r>   12.2204    0.0000 </r>
       <r>   12.6870    0.0000 </r>
       <r>   13.2302    0.0000 </r>
       <r>   13.3577    0.0000 </r>
       <r>   15.1636    0.0000 </r>
       <r>   15.1639    0.0000 </r>
       <r>   15.1967    0.0000 </r>
       <r>   15.3859    0.0000 </r>
       <r>   16.3167    0.0000 </r>
       <r>   16.5585    0.0000 </r>
       <r>   16.5884    0.0000 </r>
       <r>   16.7490    0.0000 </r>
       <r>   17.3123    0.0000 </r>
       <r>   17.8033    0.0000 </r>
       <r>   18.0599    0.0000 </r>
       <r>   18.0603    0.0000 </r>
       <r>   18.6212    0.0000 </r>
       <r>   19.6871    0.0000 </r>
       <r>   19.9530    0.0000 </r>
       <r>   19.9808    0.0000 </r>
       <r>   20.4726    0.0000 </r>
       <r>   21.1810    0.0000 </r>
       <r>   21.2774    0.0000 </r>
       <r>   21.5031    0.0000 </r>
       <r>   21.7270    0.0000 </r>
       <r>   21.8248    0.0000 </r>
       <r>   23.7900    0.0000 </r>
       <r>   23.7903    0.0000 </r>
       <r>   24.0030    0.0000 </r>
       <r>   25.1781    0.0000 </r>
       <r>   25.5233    0.0000 </r>
      </set>
      <set comment="kpoint 9">
       <r>  -55.6945    1.0000 </r>
       <r>  -55.6945    1.0000 </r>
       <r>  -29.8117    1.0000 </r>
       <r>  -29.8117    1.0000 </r>
       <r>  -29.7857    1.0000 </r>
       <r>  -29.7857    1.0000 </r>
       <r>  -29.6775    1.0000 </r>
       <r>  -29.6774    1.0000 </r>
       <r>   -8.2618    1.0000 </r>
       <r>   -8.2170    1.0000 </r>
       <r>   -7.3643    1.0000 </r>
       <r>   -7.2978    1.0000 </r>
       <r>    0.0545    1.0000 </r>
       <r>    0.3253    1.0000 </r>
       <r>    1.4951    1.0000 </r>
       <r>    1.5283    1.0000 </r>
       <r>    1.8142    1.0000 </r>
       <r>    2.0571    1.0000 </r>
       <r>    2.5764    1.0000 </r>
       <r>    2.6241    1.0000 </r>
       <r>    3.1807    1.0000 </r>
       <r>    3.1868    1.0000 </r>
       <r>    4.0205    1.0000 </r>
       <r>    4.3413    1.0000 </r>
       <r>    4.5777    1.0000 </r>
       <r>    4.6821    1.0000 </r>
       <r>    7.0855    0.0000 </r>
       <r>    7.4576    0.0000 </r>
       <r>    7.5926    0.0000 </r>
       <r>    7.6364    0.0000 </r>
       <r>    7.7320    0.0000 </r>
       <r>    7.8615    0.0000 </r>
       <r>    8.8641    0.0000 </r>
       <r>    8.9498    0.0000 </r>
       <r>   12.7078    0.0000 </r>
       <r>   13.4765    0.0000 </r>
       <r>   13.7267    0.0000 </r>
       <r>   14.1645    0.0000 </r>
       <r>   14.6666    0.0000 </r>
       <r>   14.7547    0.0000 </r>
       <r>   14.9111    0.0000 </r>
       <r>   15.1815    0.0000 </r>
       <r>   16.5927    0.0000 </r>
       <r>   16.6117    0.0000 </r>
       <r>   16.7984    0.0000 </r>
       <r>   17.0170    0.0000 </r>
       <r>   17.5550    0.0000 </r>
       <r>   17.7978    0.0000 </r>
       <r>   17.8944    0.0000 </r>
       <r>   18.0083    0.0000 </r>
       <r>   18.5274    0.0000 </r>
       <r>   18.7422    0.0000 </r>
       <r>   19.5522    0.0000 </r>
       <r>   19.7648    0.0000 </r>
       <r>   19.8253    0.0000 </r>
       <r>   20.7858    0.0000 </r>
       <r>   21.5620    0.0000 </r>
       <r>   21.8247    0.0000 </r>
       <r>   22.4525    0.0000 </r>
       <r>   22.6207    0.0000 </r>
       <r>   24.6066    0.0000 </r>
       <r>   24.9002    0.0000 </r>
       <r>   24.9672    0.0000 </r>
       <r>   25.6066    0.0000 </r>
       <r>   25.7911    0.0000 </r>
      </set>
      <set comment="kpoint 10">
       <r>  -55.6853    1.0000 </r>
       <r>  -55.6853    1.0000 </r>
       <r>  -29.8733    1.0000 </r>
       <r>  -29.8732    1.0000 </r>
       <r>  -29.7933    1.0000 </r>
       <r>  -29.7932    1.0000 </r>
       <r>  -29.7026    1.0000 </r>
       <r>  -29.7026    1.0000 </r>
       <r>   -7.8028    1.0000 </r>
       <r>   -7.7631    1.0000 </r>
       <r>   -7.1702    1.0000 </r>
       <r>   -7.1181    1.0000 </r>
       <r>    0.0927    1.0000 </r>
       <r>    0.2358    1.0000 </r>
       <r>    1.2344    1.0000 </r>
       <r>    1.2650    1.0000 </r>
       <r>    1.3550    1.0000 </r>
       <r>    1.4052    1.0000 </r>
       <r>    2.1985    1.0000 </r>
       <r>    2.2818    1.0000 </r>
       <r>    3.4268    1.0000 </r>
       <r>    3.4341    1.0000 </r>
       <r>    3.7773    1.0000 </r>
       <r>    3.9840    1.0000 </r>
       <r>    4.3120    1.0000 </r>
       <r>    4.3494    1.0000 </r>
       <r>    7.0405    0.0000 </r>
       <r>    7.3433    0.0000 </r>
       <r>    7.5206    0.0000 </r>
       <r>    7.7152    0.0000 </r>
       <r>    7.9860    0.0000 </r>
       <r>    8.2975    0.0000 </r>
       <r>    9.1981    0.0000 </r>
       <r>    9.3436    0.0000 </r>
       <r>   12.8337    0.0000 </r>
       <r>   13.3250    0.0000 </r>
       <r>   13.4127    0.0000 </r>
       <r>   13.8020    0.0000 </r>
       <r>   14.0708    0.0000 </r>
       <r>   14.6123    0.0000 </r>
       <r>   14.7579    0.0000 </r>
       <r>   15.3253    0.0000 </r>
       <r>   16.4992    0.0000 </r>
       <r>   16.7619    0.0000 </r>
       <r>   17.0540    0.0000 </r>
       <r>   17.2324    0.0000 </r>
       <r>   17.4752    0.0000 </r>
       <r>   17.7579    0.0000 </r>
       <r>   17.9068    0.0000 </r>
       <r>   18.1708    0.0000 </r>
       <r>   18.3873    0.0000 </r>
       <r>   19.4003    0.0000 </r>
       <r>   19.8892    0.0000 </r>
       <r>   20.1526    0.0000 </r>
       <r>   20.2268    0.0000 </r>
       <r>   20.6130    0.0000 </r>
       <r>   21.8165    0.0000 </r>
       <r>   22.3773    0.0000 </r>
       <r>   22.8976    0.0000 </r>
       <r>   23.5714    0.0000 </r>
       <r>   23.7339    0.0000 </r>
       <r>   24.0094    0.0000 </r>
       <r>   25.0471    0.0000 </r>
       <r>   25.0530    0.0000 </r>
       <r>   25.8491    0.0000 </r>
      </set>
      <set comment="kpoint 11">
       <r>  -55.6773    1.0000 </r>
       <r>  -55.6773    1.0000 </r>
       <r>  -29.9481    1.0000 </r>
       <r>  -29.9481    1.0000 </r>
       <r>  -29.7772    1.0000 </r>
       <r>  -29.7772    1.0000 </r>
       <r>  -29.7244    1.0000 </r>
       <r>  -29.7243    1.0000 </r>
       <r>   -7.3522    1.0000 </r>
       <r>   -7.3217    1.0000 </r>
       <r>   -6.9828    1.0000 </r>
       <r>   -6.9478    1.0000 </r>
       <r>   -0.2115    1.0000 </r>
       <r>   -0.1353    1.0000 </r>
       <r>    0.6825    1.0000 </r>
       <r>    0.7438    1.0000 </r>
       <r>    1.2181    1.0000 </r>
       <r>    1.3877    1.0000 </r>
       <r>    2.0395    1.0000 </r>
       <r>    2.1075    1.0000 </r>
       <r>    3.4877    1.0000 </r>
       <r>    3.5399    1.0000 </r>
       <r>    3.5655    1.0000 </r>
       <r>    3.6129    1.0000 </r>
       <r>    4.4126    1.0000 </r>
       <r>    4.4490    1.0000 </r>
       <r>    7.2368    0.0000 </r>
       <r>    7.4131    0.0000 </r>
       <r>    7.6424    0.0000 </r>
       <r>    7.7815    0.0000 </r>
       <r>    8.4503    0.0000 </r>
       <r>    8.7742    0.0000 </r>
       <r>    9.3125    0.0000 </r>
       <r>    9.5178    0.0000 </r>
       <r>   12.2779    0.0000 </r>
       <r>   12.4507    0.0000 </r>
       <r>   13.1431    0.0000 </r>
       <r>   13.2588    0.0000 </r>
       <r>   13.5680    0.0000 </r>
       <r>   14.4633    0.0000 </r>
       <r>   14.5556    0.0000 </r>
       <r>   15.3694    0.0000 </r>
       <r>   15.7688    0.0000 </r>
       <r>   16.1207    0.0000 </r>
       <r>   16.4675    0.0000 </r>
       <r>   16.8193    0.0000 </r>
       <r>   17.9160    0.0000 </r>
       <r>   18.3980    0.0000 </r>
       <r>   18.6684    0.0000 </r>
       <r>   18.7653    0.0000 </r>
       <r>   19.2919    0.0000 </r>
       <r>   19.9300    0.0000 </r>
       <r>   20.4295    0.0000 </r>
       <r>   20.9884    0.0000 </r>
       <r>   21.1952    0.0000 </r>
       <r>   21.5761    0.0000 </r>
       <r>   21.8108    0.0000 </r>
       <r>   22.5771    0.0000 </r>
       <r>   23.2918    0.0000 </r>
       <r>   23.6703    0.0000 </r>
       <r>   23.9210    0.0000 </r>
       <r>   24.3528    0.0000 </r>
       <r>   24.4455    0.0000 </r>
       <r>   24.6597    0.0000 </r>
       <r>   26.1221    0.0000 </r>
      </set>
      <set comment="kpoint 12">
       <r>  -55.6727    1.0000 </r>
       <r>  -55.6727    1.0000 </r>
       <r>  -29.9910    1.0000 </r>
       <r>  -29.9909    1.0000 </r>
       <r>  -29.7679    1.0000 </r>
       <r>  -29.7679    1.0000 </r>
       <r>  -29.7369    1.0000 </r>
       <r>  -29.7368    1.0000 </r>
       <r>   -7.0590    1.0000 </r>
       <r>   -7.0397    1.0000 </r>
       <r>   -6.8628    1.0000 </r>
       <r>   -6.8436    1.0000 </r>
       <r>   -0.4632    1.0000 </r>
       <r>   -0.3994    1.0000 </r>
       <r>    0.3560    1.0000 </r>
       <r>    0.3915    1.0000 </r>
       <r>    1.1012    1.0000 </r>
       <r>    1.2631    1.0000 </r>
       <r>    1.9985    1.0000 </r>
       <r>    2.0384    1.0000 </r>
       <r>    3.3089    1.0000 </r>
       <r>    3.3859    1.0000 </r>
       <r>    3.6626    1.0000 </r>
       <r>    3.6957    1.0000 </r>
       <r>    4.6503    1.0000 </r>
       <r>    4.6878    1.0000 </r>
       <r>    7.3911    0.0000 </r>
       <r>    7.4422    0.0000 </r>
       <r>    7.8524    0.0000 </r>
       <r>    7.9738    0.0000 </r>
       <r>    8.8491    0.0000 </r>
       <r>    9.1092    0.0000 </r>
       <r>    9.2302    0.0000 </r>
       <r>    9.4512    0.0000 </r>
       <r>   11.4616    0.0000 </r>
       <r>   11.5631    0.0000 </r>
       <r>   13.3553    0.0000 </r>
       <r>   13.4564    0.0000 </r>
       <r>   13.5835    0.0000 </r>
       <r>   14.0414    0.0000 </r>
       <r>   14.2871    0.0000 </r>
       <r>   14.8752    0.0000 </r>
       <r>   15.3644    0.0000 </r>
       <r>   15.7398    0.0000 </r>
       <r>   15.8830    0.0000 </r>
       <r>   16.5359    0.0000 </r>
       <r>   17.9557    0.0000 </r>
       <r>   18.6890    0.0000 </r>
       <r>   19.0633    0.0000 </r>
       <r>   19.1211    0.0000 </r>
       <r>   20.1640    0.0000 </r>
       <r>   21.0005    0.0000 </r>
       <r>   21.1951    0.0000 </r>
       <r>   21.3973    0.0000 </r>
       <r>   21.7644    0.0000 </r>
       <r>   21.9771    0.0000 </r>
       <r>   22.2822    0.0000 </r>
       <r>   23.3342    0.0000 </r>
       <r>   23.3359    0.0000 </r>
       <r>   24.0164    0.0000 </r>
       <r>   24.0388    0.0000 </r>
       <r>   24.1411    0.0000 </r>
       <r>   24.4883    0.0000 </r>
       <r>   25.3945    0.0000 </r>
       <r>   25.7426    0.0000 </r>
      </set>
      <set comment="kpoint 13">
       <r>  -55.6866    1.0000 </r>
       <r>  -55.6865    1.0000 </r>
       <r>  -29.8521    1.0000 </r>
       <r>  -29.8521    1.0000 </r>
       <r>  -29.7958    1.0000 </r>
       <r>  -29.7957    1.0000 </r>
       <r>  -29.7090    1.0000 </r>
       <r>  -29.7090    1.0000 </r>
       <r>   -7.8690    1.0000 </r>
       <r>   -7.8283    1.0000 </r>
       <r>   -7.1960    1.0000 </r>
       <r>   -7.1414    1.0000 </r>
       <r>    0.1804    1.0000 </r>
       <r>    0.3524    1.0000 </r>
       <r>    1.3255    1.0000 </r>
       <r>    1.4188    1.0000 </r>
       <r>    1.4660    1.0000 </r>
       <r>    1.5592    1.0000 </r>
       <r>    1.9189    1.0000 </r>
       <r>    2.1001    1.0000 </r>
       <r>    3.2131    1.0000 </r>
       <r>    3.2158    1.0000 </r>
       <r>    4.0488    1.0000 </r>
       <r>    4.2218    1.0000 </r>
       <r>    4.3830    1.0000 </r>
       <r>    4.3973    1.0000 </r>
       <r>    6.9107    0.0000 </r>
       <r>    7.2772    0.0000 </r>
       <r>    7.5736    0.0000 </r>
       <r>    7.7087    0.0000 </r>
       <r>    7.7620    0.0000 </r>
       <r>    7.9895    0.0000 </r>
       <r>    9.2459    0.0000 </r>
       <r>    9.4292    0.0000 </r>
       <r>   13.0680    0.0000 </r>
       <r>   13.6024    0.0000 </r>
       <r>   13.9696    0.0000 </r>
       <r>   14.0962    0.0000 </r>
       <r>   14.5787    0.0000 </r>
       <r>   14.9615    0.0000 </r>
       <r>   15.0881    0.0000 </r>
       <r>   15.1541    0.0000 </r>
       <r>   16.2293    0.0000 </r>
       <r>   16.5266    0.0000 </r>
       <r>   16.6161    0.0000 </r>
       <r>   16.8989    0.0000 </r>
       <r>   17.2886    0.0000 </r>
       <r>   17.4620    0.0000 </r>
       <r>   17.4761    0.0000 </r>
       <r>   17.6955    0.0000 </r>
       <r>   17.8188    0.0000 </r>
       <r>   19.5398    0.0000 </r>
       <r>   20.0664    0.0000 </r>
       <r>   20.2527    0.0000 </r>
       <r>   20.2530    0.0000 </r>
       <r>   20.8318    0.0000 </r>
       <r>   21.3632    0.0000 </r>
       <r>   22.3659    0.0000 </r>
       <r>   23.6089    0.0000 </r>
       <r>   23.6714    0.0000 </r>
       <r>   23.7511    0.0000 </r>
       <r>   24.8645    0.0000 </r>
       <r>   24.9049    0.0000 </r>
       <r>   25.0021    0.0000 </r>
       <r>   25.6690    0.0000 </r>
      </set>
      <set comment="kpoint 14">
       <r>  -55.6786    1.0000 </r>
       <r>  -55.6785    1.0000 </r>
       <r>  -29.9145    1.0000 </r>
       <r>  -29.9145    1.0000 </r>
       <r>  -29.7797    1.0000 </r>
       <r>  -29.7797    1.0000 </r>
       <r>  -29.7438    1.0000 </r>
       <r>  -29.7438    1.0000 </r>
       <r>   -7.4324    1.0000 </r>
       <r>   -7.3993    1.0000 </r>
       <r>   -7.0084    1.0000 </r>
       <r>   -6.9689    1.0000 </r>
       <r>    0.0390    1.0000 </r>
       <r>    0.1269    1.0000 </r>
       <r>    0.8166    1.0000 </r>
       <r>    0.8474    1.0000 </r>
       <r>    1.3983    1.0000 </r>
       <r>    1.5270    1.0000 </r>
       <r>    1.8054    1.0000 </r>
       <r>    1.9940    1.0000 </r>
       <r>    2.9384    1.0000 </r>
       <r>    2.9615    1.0000 </r>
       <r>    3.8031    1.0000 </r>
       <r>    3.8639    1.0000 </r>
       <r>    4.4292    1.0000 </r>
       <r>    4.4325    1.0000 </r>
       <r>    7.0524    0.0000 </r>
       <r>    7.4436    0.0000 </r>
       <r>    7.6987    0.0000 </r>
       <r>    7.7525    0.0000 </r>
       <r>    8.0167    0.0000 </r>
       <r>    8.3182    0.0000 </r>
       <r>    9.4303    0.0000 </r>
       <r>    9.6983    0.0000 </r>
       <r>   12.9868    0.0000 </r>
       <r>   13.0934    0.0000 </r>
       <r>   13.5822    0.0000 </r>
       <r>   13.6288    0.0000 </r>
       <r>   14.3460    0.0000 </r>
       <r>   14.8153    0.0000 </r>
       <r>   15.0340    0.0000 </r>
       <r>   15.4305    0.0000 </r>
       <r>   15.8103    0.0000 </r>
       <r>   16.2946    0.0000 </r>
       <r>   16.4208    0.0000 </r>
       <r>   17.0332    0.0000 </r>
       <r>   17.2494    0.0000 </r>
       <r>   17.5602    0.0000 </r>
       <r>   17.8494    0.0000 </r>
       <r>   18.0714    0.0000 </r>
       <r>   18.1446    0.0000 </r>
       <r>   19.4520    0.0000 </r>
       <r>   19.9397    0.0000 </r>
       <r>   20.5034    0.0000 </r>
       <r>   21.0936    0.0000 </r>
       <r>   21.4496    0.0000 </r>
       <r>   21.5556    0.0000 </r>
       <r>   22.9111    0.0000 </r>
       <r>   23.6513    0.0000 </r>
       <r>   24.0927    0.0000 </r>
       <r>   24.2715    0.0000 </r>
       <r>   24.9448    0.0000 </r>
       <r>   25.0152    0.0000 </r>
       <r>   25.1393    0.0000 </r>
       <r>   25.7591    0.0000 </r>
      </set>
      <set comment="kpoint 15">
       <r>  -55.6727    1.0000 </r>
       <r>  -55.6727    1.0000 </r>
       <r>  -29.9586    1.0000 </r>
       <r>  -29.9585    1.0000 </r>
       <r>  -29.7704    1.0000 </r>
       <r>  -29.7704    1.0000 </r>
       <r>  -29.7680    1.0000 </r>
       <r>  -29.7679    1.0000 </r>
       <r>   -7.0741    1.0000 </r>
       <r>   -7.0521    1.0000 </r>
       <r>   -6.8543    1.0000 </r>
       <r>   -6.8309    1.0000 </r>
       <r>   -0.1400    1.0000 </r>
       <r>   -0.0780    1.0000 </r>
       <r>    0.3037    1.0000 </r>
       <r>    0.3175    1.0000 </r>
       <r>    1.2927    1.0000 </r>
       <r>    1.4283    1.0000 </r>
       <r>    1.9104    1.0000 </r>
       <r>    2.0511    1.0000 </r>
       <r>    2.7990    1.0000 </r>
       <r>    2.8510    1.0000 </r>
       <r>    3.4336    1.0000 </r>
       <r>    3.5044    1.0000 </r>
       <r>    4.6618    1.0000 </r>
       <r>    4.6941    1.0000 </r>
       <r>    7.2831    0.0000 </r>
       <r>    7.4530    0.0000 </r>
       <r>    7.8978    0.0000 </r>
       <r>    8.0144    0.0000 </r>
       <r>    8.3679    0.0000 </r>
       <r>    8.6417    0.0000 </r>
       <r>    9.4220    0.0000 </r>
       <r>    9.7467    0.0000 </r>
       <r>   12.0726    0.0000 </r>
       <r>   12.2033    0.0000 </r>
       <r>   13.6605    0.0000 </r>
       <r>   13.7432    0.0000 </r>
       <r>   14.3786    0.0000 </r>
       <r>   14.6940    0.0000 </r>
       <r>   14.8292    0.0000 </r>
       <r>   14.9322    0.0000 </r>
       <r>   15.5899    0.0000 </r>
       <r>   15.5912    0.0000 </r>
       <r>   16.0121    0.0000 </r>
       <r>   16.7147    0.0000 </r>
       <r>   17.9353    0.0000 </r>
       <r>   18.3404    0.0000 </r>
       <r>   18.4182    0.0000 </r>
       <r>   18.7953    0.0000 </r>
       <r>   18.8447    0.0000 </r>
       <r>   19.4818    0.0000 </r>
       <r>   20.2270    0.0000 </r>
       <r>   20.7654    0.0000 </r>
       <r>   21.2119    0.0000 </r>
       <r>   21.3258    0.0000 </r>
       <r>   22.0684    0.0000 </r>
       <r>   23.1924    0.0000 </r>
       <r>   23.8940    0.0000 </r>
       <r>   24.2471    0.0000 </r>
       <r>   24.3563    0.0000 </r>
       <r>   24.8467    0.0000 </r>
       <r>   24.9559    0.0000 </r>
       <r>   25.5234    0.0000 </r>
       <r>   26.4816    0.0000 </r>
      </set>
      <set comment="kpoint 16">
       <r>  -55.6706    1.0000 </r>
       <r>  -55.6705    1.0000 </r>
       <r>  -29.9744    1.0000 </r>
       <r>  -29.9744    1.0000 </r>
       <r>  -29.7803    1.0000 </r>
       <r>  -29.7803    1.0000 </r>
       <r>  -29.7636    1.0000 </r>
       <r>  -29.7636    1.0000 </r>
       <r>   -6.9312    1.0000 </r>
       <r>   -6.9172    1.0000 </r>
       <r>   -6.7921    1.0000 </r>
       <r>   -6.7788    1.0000 </r>
       <r>   -0.2071    1.0000 </r>
       <r>   -0.1503    1.0000 </r>
       <r>    0.1179    1.0000 </r>
       <r>    0.1244    1.0000 </r>
       <r>    1.1719    1.0000 </r>
       <r>    1.3116    1.0000 </r>
       <r>    1.9991    1.0000 </r>
       <r>    2.1029    1.0000 </r>
       <r>    2.8025    1.0000 </r>
       <r>    2.8529    1.0000 </r>
       <r>    3.2445    1.0000 </r>
       <r>    3.3452    1.0000 </r>
       <r>    4.8309    1.0000 </r>
       <r>    4.8771    1.0000 </r>
       <r>    7.2720    0.0000 </r>
       <r>    7.3145    0.0000 </r>
       <r>    8.1631    0.0000 </r>
       <r>    8.2153    0.0000 </r>
       <r>    8.5363    0.0000 </r>
       <r>    8.7749    0.0000 </r>
       <r>    9.3733    0.0000 </r>
       <r>    9.7170    0.0000 </r>
       <r>   11.6492    0.0000 </r>
       <r>   11.7125    0.0000 </r>
       <r>   13.8682    0.0000 </r>
       <r>   13.9953    0.0000 </r>
       <r>   14.5221    0.0000 </r>
       <r>   14.6272    0.0000 </r>
       <r>   14.6545    0.0000 </r>
       <r>   14.7377    0.0000 </r>
       <r>   15.2432    0.0000 </r>
       <r>   15.2885    0.0000 </r>
       <r>   15.7842    0.0000 </r>
       <r>   16.6850    0.0000 </r>
       <r>   17.8952    0.0000 </r>
       <r>   18.3207    0.0000 </r>
       <r>   18.5615    0.0000 </r>
       <r>   19.2178    0.0000 </r>
       <r>   19.7342    0.0000 </r>
       <r>   19.7423    0.0000 </r>
       <r>   20.6888    0.0000 </r>
       <r>   20.7374    0.0000 </r>
       <r>   20.9348    0.0000 </r>
       <r>   21.6764    0.0000 </r>
       <r>   22.2097    0.0000 </r>
       <r>   23.3844    0.0000 </r>
       <r>   23.7090    0.0000 </r>
       <r>   23.9027    0.0000 </r>
       <r>   24.1694    0.0000 </r>
       <r>   24.6308    0.0000 </r>
       <r>   25.1180    0.0000 </r>
       <r>   25.3738    0.0000 </r>
       <r>   26.0367    0.0000 </r>
      </set>
      <set comment="kpoint 17">
       <r>  -55.6727    1.0000 </r>
       <r>  -55.6727    1.0000 </r>
       <r>  -29.9370    1.0000 </r>
       <r>  -29.9369    1.0000 </r>
       <r>  -29.7926    1.0000 </r>
       <r>  -29.7926    1.0000 </r>
       <r>  -29.7680    1.0000 </r>
       <r>  -29.7679    1.0000 </r>
       <r>   -7.0814    1.0000 </r>
       <r>   -7.0583    1.0000 </r>
       <r>   -6.8499    1.0000 </r>
       <r>   -6.8247    1.0000 </r>
       <r>    0.0546    1.0000 </r>
       <r>    0.1163    1.0000 </r>
       <r>    0.2682    1.0000 </r>
       <r>    0.2953    1.0000 </r>
       <r>    1.5606    1.0000 </r>
       <r>    1.5970    1.0000 </r>
       <r>    1.8596    1.0000 </r>
       <r>    2.0477    1.0000 </r>
       <r>    2.2521    1.0000 </r>
       <r>    2.3077    1.0000 </r>
       <r>    3.5201    1.0000 </r>
       <r>    3.5695    1.0000 </r>
       <r>    4.6456    1.0000 </r>
       <r>    4.6665    1.0000 </r>
       <r>    7.2172    0.0000 </r>
       <r>    7.4374    0.0000 </r>
       <r>    7.9285    0.0000 </r>
       <r>    8.0447    0.0000 </r>
       <r>    8.1121    0.0000 </r>
       <r>    8.4134    0.0000 </r>
       <r>    9.5895    0.0000 </r>
       <r>    9.8942    0.0000 </r>
       <r>   12.6297    0.0000 </r>
       <r>   12.7010    0.0000 </r>
       <r>   13.1804    0.0000 </r>
       <r>   14.0402    0.0000 </r>
       <r>   14.1685    0.0000 </r>
       <r>   14.5497    0.0000 </r>
       <r>   15.1870    0.0000 </r>
       <r>   15.2609    0.0000 </r>
       <r>   16.3968    0.0000 </r>
       <r>   16.5377    0.0000 </r>
       <r>   16.5918    0.0000 </r>
       <r>   16.6949    0.0000 </r>
       <r>   17.6061    0.0000 </r>
       <r>   17.7797    0.0000 </r>
       <r>   17.8388    0.0000 </r>
       <r>   17.9330    0.0000 </r>
       <r>   18.0608    0.0000 </r>
       <r>   19.0986    0.0000 </r>
       <r>   20.0223    0.0000 </r>
       <r>   20.3125    0.0000 </r>
       <r>   20.8202    0.0000 </r>
       <r>   21.2349    0.0000 </r>
       <r>   21.6617    0.0000 </r>
       <r>   23.8750    0.0000 </r>
       <r>   24.0048    0.0000 </r>
       <r>   24.3947    0.0000 </r>
       <r>   24.4355    0.0000 </r>
       <r>   24.9016    0.0000 </r>
       <r>   25.1247    0.0000 </r>
       <r>   26.0482    0.0000 </r>
       <r>   26.3281    0.0000 </r>
      </set>
      <set comment="kpoint 18">
       <r>  -55.6693    1.0000 </r>
       <r>  -55.6693    1.0000 </r>
       <r>  -29.9415    1.0000 </r>
       <r>  -29.9415    1.0000 </r>
       <r>  -29.8292    1.0000 </r>
       <r>  -29.8292    1.0000 </r>
       <r>  -29.7612    1.0000 </r>
       <r>  -29.7612    1.0000 </r>
       <r>   -6.8617    1.0000 </r>
       <r>   -6.8503    1.0000 </r>
       <r>   -6.7467    1.0000 </r>
       <r>   -6.7352    1.0000 </r>
       <r>   -0.0715    1.0000 </r>
       <r>   -0.0447    1.0000 </r>
       <r>    0.1919    1.0000 </r>
       <r>    0.2362    1.0000 </r>
       <r>    1.3332    1.0000 </r>
       <r>    1.4135    1.0000 </r>
       <r>    1.9418    1.0000 </r>
       <r>    2.0110    1.0000 </r>
       <r>    2.0790    1.0000 </r>
       <r>    2.2142    1.0000 </r>
       <r>    3.1711    1.0000 </r>
       <r>    3.2638    1.0000 </r>
       <r>    4.9448    1.0000 </r>
       <r>    4.9856    1.0000 </r>
       <r>    7.0544    0.0000 </r>
       <r>    7.0924    0.0000 </r>
       <r>    8.1590    0.0000 </r>
       <r>    8.3767    0.0000 </r>
       <r>    8.4716    0.0000 </r>
       <r>    8.4853    0.0000 </r>
       <r>    9.7361    0.0000 </r>
       <r>    9.9757    0.0000 </r>
       <r>   12.0146    0.0000 </r>
       <r>   12.2703    0.0000 </r>
       <r>   13.0699    0.0000 </r>
       <r>   13.6575    0.0000 </r>
       <r>   14.3681    0.0000 </r>
       <r>   14.8351    0.0000 </r>
       <r>   15.4745    0.0000 </r>
       <r>   15.6485    0.0000 </r>
       <r>   16.0049    0.0000 </r>
       <r>   16.1324    0.0000 </r>
       <r>   16.6926    0.0000 </r>
       <r>   17.0072    0.0000 </r>
       <r>   17.1768    0.0000 </r>
       <r>   18.0289    0.0000 </r>
       <r>   18.2353    0.0000 </r>
       <r>   18.5111    0.0000 </r>
       <r>   18.7165    0.0000 </r>
       <r>   19.1285    0.0000 </r>
       <r>   19.9985    0.0000 </r>
       <r>   20.3373    0.0000 </r>
       <r>   20.5445    0.0000 </r>
       <r>   20.8230    0.0000 </r>
       <r>   21.7172    0.0000 </r>
       <r>   23.4385    0.0000 </r>
       <r>   23.7523    0.0000 </r>
       <r>   23.9592    0.0000 </r>
       <r>   24.1153    0.0000 </r>
       <r>   24.2679    0.0000 </r>
       <r>   25.1364    0.0000 </r>
       <r>   25.3306    0.0000 </r>
       <r>   26.5146    0.0000 </r>
      </set>
      <set comment="kpoint 19">
       <r>  -55.6680    1.0000 </r>
       <r>  -55.6680    1.0000 </r>
       <r>  -29.9141    1.0000 </r>
       <r>  -29.9141    1.0000 </r>
       <r>  -29.8719    1.0000 </r>
       <r>  -29.8719    1.0000 </r>
       <r>  -29.7587    1.0000 </r>
       <r>  -29.7587    1.0000 </r>
       <r>   -6.7790    1.0000 </r>
       <r>   -6.7790    1.0000 </r>
       <r>   -6.7008    1.0000 </r>
       <r>   -6.7008    1.0000 </r>
       <r>   -0.2185    1.0000 </r>
       <r>   -0.1874    1.0000 </r>
       <r>    0.6061    1.0000 </r>
       <r>    0.6061    1.0000 </r>
       <r>    1.0985    1.0000 </r>
       <r>    1.1525    1.0000 </r>
       <r>    1.6334    1.0000 </r>
       <r>    1.6334    1.0000 </r>
       <r>    2.2973    1.0000 </r>
       <r>    2.2974    1.0000 </r>
       <r>    3.0378    1.0000 </r>
       <r>    3.0378    1.0000 </r>
       <r>    5.1361    1.0000 </r>
       <r>    5.1768    1.0000 </r>
       <r>    6.8343    0.0000 </r>
       <r>    6.8343    0.0000 </r>
       <r>    8.0544    0.0000 </r>
       <r>    8.3933    0.0000 </r>
       <r>    8.6798    0.0000 </r>
       <r>    8.6798    0.0000 </r>
       <r>    9.9969    0.0000 </r>
       <r>    9.9970    0.0000 </r>
       <r>   11.9592    0.0000 </r>
       <r>   12.7260    0.0000 </r>
       <r>   12.7260    0.0000 </r>
       <r>   12.8429    0.0000 </r>
       <r>   14.8341    0.0000 </r>
       <r>   14.8341    0.0000 </r>
       <r>   15.9530    0.0000 </r>
       <r>   16.0103    0.0000 </r>
       <r>   16.0103    0.0000 </r>
       <r>   16.7003    0.0000 </r>
       <r>   16.7379    0.0000 </r>
       <r>   16.9006    0.0000 </r>
       <r>   18.0563    0.0000 </r>
       <r>   18.0563    0.0000 </r>
       <r>   18.0620    0.0000 </r>
       <r>   18.0620    0.0000 </r>
       <r>   18.2237    0.0000 </r>
       <r>   19.3749    0.0000 </r>
       <r>   19.6426    0.0000 </r>
       <r>   19.6426    0.0000 </r>
       <r>   20.1527    0.0000 </r>
       <r>   21.3623    0.0000 </r>
       <r>   21.3623    0.0000 </r>
       <r>   22.9403    0.0000 </r>
       <r>   23.6135    0.0000 </r>
       <r>   23.6135    0.0000 </r>
       <r>   23.6695    0.0000 </r>
       <r>   23.6695    0.0000 </r>
       <r>   24.9197    0.0000 </r>
       <r>   25.7657    0.0000 </r>
       <r>   26.7561    0.0000 </r>
      </set>
     </set>
    </set>
   </array>
  </eigenvalues>
  <separator name="orbital magnetization" >
   <v name="MAGDIPOLOUT">      0.00000000      0.00000000      0.00000000</v>
  </separator>
  <dos>
   <i name="efermi">      5.71352072 </i>
   <total>
    <array>
     <dimension dim="1">gridpoints</dimension>
     <dimension dim="2">spin</dimension>
     <field>energy</field>
     <field>total</field>
     <field>integrated</field>
     <set>
      <set comment="spin 1">
       <r>   -59.8329     0.0000     0.0000 </r>
       <r>   -59.8026     0.0000     0.0000 </r>
       <r>   -59.7724     0.0000     0.0000 </r>
       <r>   -59.7421     0.0000     0.0000 </r>
       <r>   -59.7119     0.0000     0.0000 </r>
       <r>   -59.6816     0.0000     0.0000 </r>
       <r>   -59.6514     0.0000     0.0000 </r>
       <r>   -59.6211     0.0000     0.0000 </r>
       <r>   -59.5909     0.0000     0.0000 </r>
       <r>   -59.5606     0.0000     0.0000 </r>
       <r>   -59.5304     0.0000     0.0000 </r>
       <r>   -59.5001     0.0000     0.0000 </r>
       <r>   -59.4699     0.0000     0.0000 </r>
       <r>   -59.4396     0.0000     0.0000 </r>
       <r>   -59.4094     0.0000     0.0000 </r>
       <r>   -59.3791     0.0000     0.0000 </r>
       <r>   -59.3489     0.0000     0.0000 </r>
       <r>   -59.3186     0.0000     0.0000 </r>
       <r>   -59.2884     0.0000     0.0000 </r>
       <r>   -59.2582     0.0000     0.0000 </r>
       <r>   -59.2279     0.0000     0.0000 </r>
       <r>   -59.1977     0.0000     0.0000 </r>
       <r>   -59.1674     0.0000     0.0000 </r>
       <r>   -59.1372     0.0000     0.0000 </r>
       <r>   -59.1069     0.0000     0.0000 </r>
       <r>   -59.0767     0.0000     0.0000 </r>
       <r>   -59.0464     0.0000     0.0000 </r>
       <r>   -59.0162     0.0000     0.0000 </r>
       <r>   -58.9859     0.0000     0.0000 </r>
       <r>   -58.9557     0.0000     0.0000 </r>
       <r>   -58.9254     0.0000     0.0000 </r>
       <r>   -58.8952     0.0000     0.0000 </r>
       <r>   -58.8649     0.0000     0.0000 </r>
       <r>   -58.8347     0.0000     0.0000 </r>
       <r>   -58.8044     0.0000     0.0000 </r>
       <r>   -58.7742     0.0000     0.0000 </r>
       <r>   -58.7439     0.0000     0.0000 </r>
       <r>   -58.7137     0.0000     0.0000 </r>
       <r>   -58.6835     0.0000     0.0000 </r>
       <r>   -58.6532     0.0000     0.0000 </r>
       <r>   -58.6230     0.0000     0.0000 </r>
       <r>   -58.5927     0.0000     0.0000 </r>
       <r>   -58.5625     0.0000     0.0000 </r>
       <r>   -58.5322     0.0000     0.0000 </r>
       <r>   -58.5020     0.0000     0.0000 </r>
       <r>   -58.4717     0.0000     0.0000 </r>
       <r>   -58.4415     0.0000     0.0000 </r>
       <r>   -58.4112     0.0000     0.0000 </r>
       <r>   -58.3810     0.0000     0.0000 </r>
       <r>   -58.3507     0.0000     0.0000 </r>
       <r>   -58.3205     0.0000     0.0000 </r>
       <r>   -58.2902     0.0000     0.0000 </r>
       <r>   -58.2600     0.0000     0.0000 </r>
       <r>   -58.2297     0.0000     0.0000 </r>
       <r>   -58.1995     0.0000     0.0000 </r>
       <r>   -58.1692     0.0000     0.0000 </r>
       <r>   -58.1390     0.0000     0.0000 </r>
       <r>   -58.1087     0.0000     0.0000 </r>
       <r>   -58.0785     0.0000     0.0000 </r>
       <r>   -58.0483     0.0000     0.0000 </r>
       <r>   -58.0180     0.0000     0.0000 </r>
       <r>   -57.9878     0.0000     0.0000 </r>
       <r>   -57.9575     0.0000     0.0000 </r>
       <r>   -57.9273     0.0000     0.0000 </r>
       <r>   -57.8970     0.0000     0.0000 </r>
       <r>   -57.8668     0.0000     0.0000 </r>
       <r>   -57.8365     0.0000     0.0000 </r>
       <r>   -57.8063     0.0000     0.0000 </r>
       <r>   -57.7760     0.0000     0.0000 </r>
       <r>   -57.7458     0.0000     0.0000 </r>
       <r>   -57.7155     0.0000     0.0000 </r>
       <r>   -57.6853     0.0000     0.0000 </r>
       <r>   -57.6550     0.0000     0.0000 </r>
       <r>   -57.6248     0.0000     0.0000 </r>
       <r>   -57.5945     0.0000     0.0000 </r>
       <r>   -57.5643     0.0000     0.0000 </r>
       <r>   -57.5340     0.0000     0.0000 </r>
       <r>   -57.5038     0.0000     0.0000 </r>
       <r>   -57.4736     0.0000     0.0000 </r>
       <r>   -57.4433     0.0000     0.0000 </r>
       <r>   -57.4131     0.0000     0.0000 </r>
       <r>   -57.3828     0.0000     0.0000 </r>
       <r>   -57.3526     0.0000     0.0000 </r>
       <r>   -57.3223     0.0000     0.0000 </r>
       <r>   -57.2921     0.0000     0.0000 </r>
       <r>   -57.2618     0.0000     0.0000 </r>
       <r>   -57.2316     0.0000     0.0000 </r>
       <r>   -57.2013     0.0000     0.0000 </r>
       <r>   -57.1711     0.0000     0.0000 </r>
       <r>   -57.1408     0.0000     0.0000 </r>
       <r>   -57.1106     0.0000     0.0000 </r>
       <r>   -57.0803     0.0000     0.0000 </r>
       <r>   -57.0501     0.0000     0.0000 </r>
       <r>   -57.0198     0.0000     0.0000 </r>
       <r>   -56.9896     0.0000     0.0000 </r>
       <r>   -56.9593     0.0000     0.0000 </r>
       <r>   -56.9291     0.0000     0.0000 </r>
       <r>   -56.8988     0.0000     0.0000 </r>
       <r>   -56.8686     0.0000     0.0000 </r>
       <r>   -56.8384     0.0000     0.0000 </r>
       <r>   -56.8081     0.0000     0.0000 </r>
       <r>   -56.7779     0.0000     0.0000 </r>
       <r>   -56.7476     0.0000     0.0000 </r>
       <r>   -56.7174     0.0000     0.0000 </r>
       <r>   -56.6871     0.0000     0.0000 </r>
       <r>   -56.6569     0.0000     0.0000 </r>
       <r>   -56.6266     0.0000     0.0000 </r>
       <r>   -56.5964     0.0000     0.0000 </r>
       <r>   -56.5661     0.0000     0.0000 </r>
       <r>   -56.5359     0.0000     0.0000 </r>
       <r>   -56.5056     0.0000     0.0000 </r>
       <r>   -56.4754     0.0000     0.0000 </r>
       <r>   -56.4451     0.0000     0.0000 </r>
       <r>   -56.4149     0.0000     0.0000 </r>
       <r>   -56.3846     0.0000     0.0000 </r>
       <r>   -56.3544     0.0000     0.0000 </r>
       <r>   -56.3241     0.0000     0.0000 </r>
       <r>   -56.2939     0.0000     0.0000 </r>
       <r>   -56.2637     0.0000     0.0000 </r>
       <r>   -56.2334     0.0000     0.0000 </r>
       <r>   -56.2032     0.0000     0.0000 </r>
       <r>   -56.1729     0.0000     0.0000 </r>
       <r>   -56.1427     0.0000     0.0000 </r>
       <r>   -56.1124     0.0000     0.0000 </r>
       <r>   -56.0822     0.0000     0.0000 </r>
       <r>   -56.0519     0.0000     0.0000 </r>
[...]
       <r>    19.5064     4.6797   102.8268 </r>
       <r>    19.5366     3.7700   102.9408 </r>
       <r>    19.5668     3.1252   103.0354 </r>
       <r>    19.5971     1.9930   103.0956 </r>
       <r>    19.6273     1.1632   103.1308 </r>
       <r>    19.6576     1.3768   103.1725 </r>
       <r>    19.6878     2.5030   103.2482 </r>
       <r>    19.7181     4.4638   103.3832 </r>
       <r>    19.7483     6.2949   103.5736 </r>
       <r>    19.7786     6.4733   103.7694 </r>
       <r>    19.8088     5.3108   103.9301 </r>
       <r>    19.8391     4.3517   104.0617 </r>
       <r>    19.8693     4.0418   104.1839 </r>
       <r>    19.8996     4.5143   104.3205 </r>
       <r>    19.9298     5.6905   104.4926 </r>
       <r>    19.9601     6.4291   104.6871 </r>
       <r>    19.9903     6.0854   104.8711 </r>
       <r>    20.0206     5.0464   105.0238 </r>
       <r>    20.0508     3.7715   105.1379 </r>
       <r>    20.0811     2.8770   105.2249 </r>
       <r>    20.1113     2.6090   105.3038 </r>
       <r>    20.1416     3.4769   105.4090 </r>
       <r>    20.1718     4.9963   105.5601 </r>
       <r>    20.2020     6.3743   105.7529 </r>
       <r>    20.2323     7.8079   105.9891 </r>
       <r>    20.2625     7.5572   106.2176 </r>
       <r>    20.2928     5.4630   106.3829 </r>
       <r>    20.3230     4.0537   106.5055 </r>
       <r>    20.3533     3.5890   106.6141 </r>
       <r>    20.3835     3.0914   106.7076 </r>
       <r>    20.4138     3.1353   106.8024 </r>
       <r>    20.4440     4.1443   106.9278 </r>
       <r>    20.4743     5.3751   107.0903 </r>
       <r>    20.5045     6.1140   107.2753 </r>
       <r>    20.5348     5.5780   107.4440 </r>
       <r>    20.5650     3.9856   107.5645 </r>
       <r>    20.5953     2.7875   107.6489 </r>
       <r>    20.6255     2.4116   107.7218 </r>
       <r>    20.6558     2.2292   107.7892 </r>
       <r>    20.6860     2.4181   107.8624 </r>
       <r>    20.7163     3.0773   107.9555 </r>
       <r>    20.7465     4.3713   108.0877 </r>
       <r>    20.7767     6.3204   108.2789 </r>
       <r>    20.8070     7.7116   108.5121 </r>
       <r>    20.8372     7.3649   108.7349 </r>
       <r>    20.8675     4.9599   108.8849 </r>
       <r>    20.8977     2.3512   108.9560 </r>
       <r>    20.9280     1.5522   109.0030 </r>
       <r>    20.9582     2.4109   109.0759 </r>
       <r>    20.9885     3.8284   109.1917 </r>
       <r>    21.0187     4.0436   109.3140 </r>
       <r>    21.0490     2.8039   109.3988 </r>
       <r>    21.0792     2.2750   109.4676 </r>
       <r>    21.1095     2.7563   109.5510 </r>
       <r>    21.1397     3.4384   109.6550 </r>
       <r>    21.1700     5.3188   109.8159 </r>
       <r>    21.2002     7.7938   110.0516 </r>
       <r>    21.2305     7.6904   110.2842 </r>
       <r>    21.2607     5.3490   110.4460 </r>
       <r>    21.2910     4.1421   110.5713 </r>
       <r>    21.3212     4.7285   110.7144 </r>
       <r>    21.3515     5.4947   110.8806 </r>
       <r>    21.3817     5.6534   111.0516 </r>
       <r>    21.4119     5.3883   111.2145 </r>
       <r>    21.4422     4.9663   111.3648 </r>
       <r>    21.4724     4.5625   111.5028 </r>
       <r>    21.5027     4.4001   111.6359 </r>
       <r>    21.5329     5.0332   111.7881 </r>
       <r>    21.5632     6.2509   111.9772 </r>
       <r>    21.5934     6.3176   112.1683 </r>
       <r>    21.6237     5.1657   112.3245 </r>
       <r>    21.6539     4.4678   112.4597 </r>
       <r>    21.6842     4.5150   112.5962 </r>
       <r>    21.7144     5.0772   112.7498 </r>
       <r>    21.7447     5.7273   112.9230 </r>
       <r>    21.7749     6.2771   113.1129 </r>
       <r>    21.8052     7.2317   113.3316 </r>
       <r>    21.8354     7.3350   113.5535 </r>
       <r>    21.8657     5.1633   113.7097 </r>
       <r>    21.8959     2.8609   113.7962 </r>
       <r>    21.9262     2.1082   113.8600 </r>
       <r>    21.9564     2.2849   113.9291 </r>
       <r>    21.9866     2.4079   114.0019 </r>
       <r>    22.0169     2.1181   114.0660 </r>
       <r>    22.0471     2.4153   114.1390 </r>
       <r>    22.0774     3.3430   114.2402 </r>
       <r>    22.1076     3.2366   114.3381 </r>
       <r>    22.1379     2.1510   114.4031 </r>
       <r>    22.1681     1.3236   114.4432 </r>
       <r>    22.1984     1.2838   114.4820 </r>
       <r>    22.2286     1.8798   114.5389 </r>
       <r>    22.2589     2.5600   114.6163 </r>
       <r>    22.2891     2.7783   114.7003 </r>
       <r>    22.3194     2.5048   114.7761 </r>
       <r>    22.3496     2.9263   114.8646 </r>
       <r>    22.3799     4.1191   114.9892 </r>
       <r>    22.4101     4.6096   115.1286 </r>
       <r>    22.4404     4.8994   115.2768 </r>
       <r>    22.4706     4.9892   115.4277 </r>
       <r>    22.5009     3.4285   115.5314 </r>
       <r>    22.5311     1.9743   115.5911 </r>
       <r>    22.5614     2.8107   115.6762 </r>
       <r>    22.5916     4.6012   115.8153 </r>
       <r>    22.6218     4.6923   115.9573 </r>
       <r>    22.6521     3.0724   116.0502 </r>
       <r>    22.6823     1.8139   116.1051 </r>
       <r>    22.7126     1.8263   116.1603 </r>
       <r>    22.7428     2.2952   116.2297 </r>
       <r>    22.7731     2.4602   116.3041 </r>
       <r>    22.8033     2.1080   116.3679 </r>
       <r>    22.8336     1.8051   116.4225 </r>
       <r>    22.8638     2.4400   116.4963 </r>
       <r>    22.8941     4.1914   116.6231 </r>
       <r>    22.9243     5.1923   116.7801 </r>
       <r>    22.9546     3.7563   116.8938 </r>
       <r>    22.9848     1.8747   116.9505 </r>
       <r>    23.0151     1.5740   116.9981 </r>
       <r>    23.0453     2.1023   117.0617 </r>
       <r>    23.0756     2.1220   117.1259 </r>
       <r>    23.1058     1.4859   117.1708 </r>
       <r>    23.1361     0.9024   117.1981 </r>
       <r>    23.1663     1.1271   117.2322 </r>
       <r>    23.1966     1.7981   117.2866 </r>
       <r>    23.2268     1.8460   117.3424 </r>
       <r>    23.2570     1.8553   117.3985 </r>
       <r>    23.2873     3.0476   117.4907 </r>
       <r>    23.3175     4.7794   117.6353 </r>
       <r>    23.3478     5.4628   117.8005 </r>
       <r>    23.3780     4.4631   117.9355 </r>
       <r>    23.4083     3.1045   118.0294 </r>
       <r>    23.4385     2.4920   118.1048 </r>
       <r>    23.4688     1.8717   118.1614 </r>
       <r>    23.4990     0.9973   118.1916 </r>
       <r>    23.5293     0.9738   118.2210 </r>
       <r>    23.5595     2.3574   118.2923 </r>
       <r>    23.5898     4.2418   118.4206 </r>
       <r>    23.6200     5.6279   118.5909 </r>
       <r>    23.6503     6.7306   118.7944 </r>
       <r>    23.6805     7.1461   119.0106 </r>
       <r>    23.7108     6.7739   119.2155 </r>
       <r>    23.7410     7.1342   119.4313 </r>
       <r>    23.7713     7.5779   119.6605 </r>
       <r>    23.8015     6.1191   119.8456 </r>
       <r>    23.8317     3.6598   119.9563 </r>
       <r>    23.8620     2.9584   120.0458 </r>
       <r>    23.8922     4.4622   120.1807 </r>
       <r>    23.9225     5.7211   120.3538 </r>
       <r>    23.9527     5.6830   120.5257 </r>
       <r>    23.9830     6.1546   120.7118 </r>
       <r>    24.0132     7.6604   120.9436 </r>
       <r>    24.0435     7.9599   121.1843 </r>
       <r>    24.0737     6.9391   121.3942 </r>
       <r>    24.1040     6.8685   121.6020 </r>
       <r>    24.1342     7.2234   121.8205 </r>
       <r>    24.1645     5.9836   122.0015 </r>
       <r>    24.1947     3.8261   122.1172 </r>
       <r>    24.2250     3.5770   122.2254 </r>
       <r>    24.2552     5.8800   122.4032 </r>
       <r>    24.2855     7.1958   122.6209 </r>
       <r>    24.3157     5.7863   122.7959 </r>
       <r>    24.3460     4.7872   122.9407 </r>
       <r>    24.3762     5.0036   123.0921 </r>
       <r>    24.4065     5.1691   123.2484 </r>
       <r>    24.4367     5.7090   123.4211 </r>
       <r>    24.4669     5.7840   123.5960 </r>
       <r>    24.4972     4.3293   123.7270 </r>
       <r>    24.5274     2.3235   123.7973 </r>
       <r>    24.5577     1.2885   123.8362 </r>
       <r>    24.5879     1.8942   123.8935 </r>
       <r>    24.6182     3.4283   123.9972 </r>
       <r>    24.6484     4.4284   124.1312 </r>
       <r>    24.6787     4.0187   124.2527 </r>
       <r>    24.7089     2.6953   124.3343 </r>
       <r>    24.7392     1.6350   124.3837 </r>
       <r>    24.7694     1.1837   124.4195 </r>
       <r>    24.7997     1.5281   124.4657 </r>
       <r>    24.8299     2.7853   124.5500 </r>
       <r>    24.8602     4.3901   124.6828 </r>
       <r>    24.8904     5.8805   124.8607 </r>
       <r>    24.9207     7.1437   125.0767 </r>
       <r>    24.9509     7.9749   125.3180 </r>
       <r>    24.9812     8.1141   125.5634 </r>
       <r>    25.0114     7.7821   125.7988 </r>
       <r>    25.0416     7.3071   126.0198 </r>
       <r>    25.0719     6.2800   126.2098 </r>
       <r>    25.1021     5.6308   126.3801 </r>
       <r>    25.1324     6.2477   126.5690 </r>
       <r>    25.1626     5.9573   126.7492 </r>
       <r>    25.1929     4.0055   126.8704 </r>
       <r>    25.2231     2.5161   126.9465 </r>
       <r>    25.2534     2.2333   127.0141 </r>
       <r>    25.2836     2.4393   127.0878 </r>
       <r>    25.3139     3.0383   127.1797 </r>
       <r>    25.3441     4.0967   127.3037 </r>
       <r>    25.3744     4.9088   127.4521 </r>
       <r>    25.4046     4.8412   127.5986 </r>
       <r>    25.4349     3.5740   127.7067 </r>
       <r>    25.4651     2.0945   127.7700 </r>
       <r>    25.4954     1.9135   127.8279 </r>
       <r>    25.5256     2.7333   127.9106 </r>
       <r>    25.5559     2.8135   127.9957 </r>
       <r>    25.5861     2.3241   128.0660 </r>
       <r>    25.6164     2.2470   128.1339 </r>
       <r>    25.6466     2.0378   128.1956 </r>
       <r>    25.6768     1.7098   128.2473 </r>
       <r>    25.7071     2.1121   128.3112 </r>
       <r>    25.7373     3.9226   128.4298 </r>
       <r>    25.7676     5.8995   128.6083 </r>
       <r>    25.7978     5.8546   128.7854 </r>
       <r>    25.8281     4.6049   128.9247 </r>
       <r>    25.8583     3.6447   129.0349 </r>
       <r>    25.8886     2.3463   129.1059 </r>
       <r>    25.9188     0.8961   129.1330 </r>
       <r>    25.9491     0.2019   129.1391 </r>
       <r>    25.9793     0.2078   129.1454 </r>
       <r>    26.0096     0.7782   129.1689 </r>
       <r>    26.0398     1.6564   129.2190 </r>
       <r>    26.0701     2.0364   129.2806 </r>
       <r>    26.1003     2.0218   129.3418 </r>
       <r>    26.1306     2.1124   129.4057 </r>
       <r>    26.1608     1.8206   129.4607 </r>
       <r>    26.1911     1.3539   129.5017 </r>
       <r>    26.2213     1.0280   129.5328 </r>
       <r>    26.2515     0.5992   129.5509 </r>
       <r>    26.2818     0.3887   129.5627 </r>
       <r>    26.3120     0.6587   129.5826 </r>
       <r>    26.3423     0.9143   129.6102 </r>
       <r>    26.3725     0.6658   129.6304 </r>
       <r>    26.4028     0.3095   129.6397 </r>
       <r>    26.4330     0.4940   129.6547 </r>
       <r>    26.4633     1.5490   129.7015 </r>
       <r>    26.4935     2.9327   129.7902 </r>
       <r>    26.5238     3.1853   129.8866 </r>
       <r>    26.5540     1.9904   129.9468 </r>
       <r>    26.5843     0.6964   129.9679 </r>
       <r>    26.6145     0.1311   129.9718 </r>
       <r>    26.6448     0.0135   129.9722 </r>
       <r>    26.6750     0.0099   129.9725 </r>
       <r>    26.7053     0.0590   129.9743 </r>
       <r>    26.7355     0.1880   129.9800 </r>
       <r>    26.7658     0.3007   129.9891 </r>
       <r>    26.7960     0.2415   129.9964 </r>
       <r>    26.8263     0.0974   129.9993 </r>
       <r>    26.8565     0.0197   129.9999 </r>
       <r>    26.8867     0.0020   130.0000 </r>
       <r>    26.9170     0.0001   130.0000 </r>
       <r>    26.9472     0.0000   130.0000 </r>
       <r>    26.9775     0.0000   130.0000 </r>
       <r>    27.0077     0.0000   130.0000 </r>
       <r>    27.0380     0.0000   130.0000 </r>
       <r>    27.0682     0.0000   130.0000 </r>
       <r>    27.0985     0.0000   130.0000 </r>
       <r>    27.1287     0.0000   130.0000 </r>
       <r>    27.1590     0.0000   130.0000 </r>
       <r>    27.1892     0.0000   130.0000 </r>
       <r>    27.2195     0.0000   130.0000 </r>
       <r>    27.2497     0.0000   130.0000 </r>
       <r>    27.2800     0.0000   130.0000 </r>
       <r>    27.3102     0.0000   130.0000 </r>
       <r>    27.3405     0.0000   130.0000 </r>
       <r>    27.3707     0.0000   130.0000 </r>
       <r>    27.4010     0.0000   130.0000 </r>
       <r>    27.4312     0.0000   130.0000 </r>
       <r>    27.4614     0.0000   130.0000 </r>
       <r>    27.4917     0.0000   130.0000 </r>
       <r>    27.5219     0.0000   130.0000 </r>
       <r>    27.5522     0.0000   130.0000 </r>
       <r>    27.5824     0.0000   130.0000 </r>
       <r>    27.6127     0.0000   130.0000 </r>
       <r>    27.6429     0.0000   130.0000 </r>
       <r>    27.6732     0.0000   130.0000 </r>
       <r>    27.7034     0.0000   130.0000 </r>
       <r>    27.7337     0.0000   130.0000 </r>
       <r>    27.7639     0.0000   130.0000 </r>
       <r>    27.7942     0.0000   130.0000 </r>
       <r>    27.8244     0.0000   130.0000 </r>
       <r>    27.8547     0.0000   130.0000 </r>
       <r>    27.8849     0.0000   130.0000 </r>
       <r>    27.9152     0.0000   130.0000 </r>
       <r>    27.9454     0.0000   130.0000 </r>
       <r>    27.9757     0.0000   130.0000 </r>
       <r>    28.0059     0.0000   130.0000 </r>
       <r>    28.0362     0.0000   130.0000 </r>
       <r>    28.0664     0.0000   130.0000 </r>
       <r>    28.0966     0.0000   130.0000 </r>
       <r>    28.1269     0.0000   130.0000 </r>
       <r>    28.1571     0.0000   130.0000 </r>
       <r>    28.1874     0.0000   130.0000 </r>
       <r>    28.2176     0.0000   130.0000 </r>
       <r>    28.2479     0.0000   130.0000 </r>
       <r>    28.2781     0.0000   130.0000 </r>
       <r>    28.3084     0.0000   130.0000 </r>
       <r>    28.3386     0.0000   130.0000 </r>
       <r>    28.3689     0.0000   130.0000 </r>
       <r>    28.3991     0.0000   130.0000 </r>
       <r>    28.4294     0.0000   130.0000 </r>
       <r>    28.4596     0.0000   130.0000 </r>
       <r>    28.4899     0.0000   130.0000 </r>
       <r>    28.5201     0.0000   130.0000 </r>
       <r>    28.5504     0.0000   130.0000 </r>
       <r>    28.5806     0.0000   130.0000 </r>
       <r>    28.6109     0.0000   130.0000 </r>
       <r>    28.6411     0.0000   130.0000 </r>
       <r>    28.6713     0.0000   130.0000 </r>
       <r>    28.7016     0.0000   130.0000 </r>
       <r>    28.7318     0.0000   130.0000 </r>
       <r>    28.7621     0.0000   130.0000 </r>
       <r>    28.7923     0.0000   130.0000 </r>
       <r>    28.8226     0.0000   130.0000 </r>
       <r>    28.8528     0.0000   130.0000 </r>
       <r>    28.8831     0.0000   130.0000 </r>
       <r>    28.9133     0.0000   130.0000 </r>
       <r>    28.9436     0.0000   130.0000 </r>
       <r>    28.9738     0.0000   130.0000 </r>
       <r>    29.0041     0.0000   130.0000 </r>
       <r>    29.0343     0.0000   130.0000 </r>
       <r>    29.0646     0.0000   130.0000 </r>
       <r>    29.0948     0.0000   130.0000 </r>
       <r>    29.1251     0.0000   130.0000 </r>
       <r>    29.1553     0.0000   130.0000 </r>
       <r>    29.1856     0.0000   130.0000 </r>
       <r>    29.2158     0.0000   130.0000 </r>
       <r>    29.2461     0.0000   130.0000 </r>
       <r>    29.2763     0.0000   130.0000 </r>
       <r>    29.3065     0.0000   130.0000 </r>
       <r>    29.3368     0.0000   130.0000 </r>
       <r>    29.3670     0.0000   130.0000 </r>
       <r>    29.3973     0.0000   130.0000 </r>
       <r>    29.4275     0.0000   130.0000 </r>
       <r>    29.4578     0.0000   130.0000 </r>
       <r>    29.4880     0.0000   130.0000 </r>
       <r>    29.5183     0.0000   130.0000 </r>
       <r>    29.5485     0.0000   130.0000 </r>
       <r>    29.5788     0.0000   130.0000 </r>
       <r>    29.6090     0.0000   130.0000 </r>
       <r>    29.6393     0.0000   130.0000 </r>
       <r>    29.6695     0.0000   130.0000 </r>
       <r>    29.6998     0.0000   130.0000 </r>
       <r>    29.7300     0.0000   130.0000 </r>
       <r>    29.7603     0.0000   130.0000 </r>
       <r>    29.7905     0.0000   130.0000 </r>
       <r>    29.8208     0.0000   130.0000 </r>
       <r>    29.8510     0.0000   130.0000 </r>
       <r>    29.8812     0.0000   130.0000 </r>
       <r>    29.9115     0.0000   130.0000 </r>
       <r>    29.9417     0.0000   130.0000 </r>
       <r>    29.9720     0.0000   130.0000 </r>
       <r>    30.0022     0.0000   130.0000 </r>
       <r>    30.0325     0.0000   130.0000 </r>
       <r>    30.0627     0.0000   130.0000 </r>
       <r>    30.0930     0.0000   130.0000 </r>
       <r>    30.1232     0.0000   130.0000 </r>
       <r>    30.1535     0.0000   130.0000 </r>
       <r>    30.1837     0.0000   130.0000 </r>
       <r>    30.2140     0.0000   130.0000 </r>
       <r>    30.2442     0.0000   130.0000 </r>
       <r>    30.2745     0.0000   130.0000 </r>
       <r>    30.3047     0.0000   130.0000 </r>
       <r>    30.3350     0.0000   130.0000 </r>
       <r>    30.3652     0.0000   130.0000 </r>
       <r>    30.3955     0.0000   130.0000 </r>
       <r>    30.4257     0.0000   130.0000 </r>
       <r>    30.4560     0.0000   130.0000 </r>
       <r>    30.4862     0.0000   130.0000 </r>
       <r>    30.5164     0.0000   130.0000 </r>
       <r>    30.5467     0.0000   130.0000 </r>
       <r>    30.5769     0.0000   130.0000 </r>
       <r>    30.6072     0.0000   130.0000 </r>
       <r>    30.6374     0.0000   130.0000 </r>
       <r>    30.6677     0.0000   130.0000 </r>
       <r>    30.6979     0.0000   130.0000 </r>
       <r>    30.7282     0.0000   130.0000 </r>
       <r>    30.7584     0.0000   130.0000 </r>
       <r>    30.7887     0.0000   130.0000 </r>
       <r>    30.8189     0.0000   130.0000 </r>
       <r>    30.8492     0.0000   130.0000 </r>
       <r>    30.8794     0.0000   130.0000 </r>
      </set>
     </set>
    </array>
   </total>
  </dos>
 </calculation>
 <structure name="finalpos" >
  <crystal>
   <varray name="basis" >
    <v>       1.59265383      -2.75855735       0.00000000 </v>
    <v>       1.59265383       2.75855735       0.00000000 </v>
    <v>       0.00000000       0.00000000      13.98103146 </v>
   </varray>
   <i name="volume">    122.84928053 </i>
   <varray name="rec_basis" >
    <v>       0.31394142      -0.18125416       0.00000000 </v>
    <v>       0.31394142       0.18125416       0.00000000 </v>
    <v>       0.00000000       0.00000000       0.07152548 </v>
   </varray>
  </crystal>
  <varray name="positions" >
   <v>       0.33333333       0.66666667       0.25000000 </v>
   <v>       0.66666667       0.33333333       0.75000000 </v>
   <v>       0.33333333       0.66666667       0.63810651 </v>
   <v>       0.66666667       0.33333333       0.36189349 </v>
   <v>       0.66666667       0.33333333       0.13810650 </v>
   <v>       0.33333333       0.66666667       0.86189353 </v>
  </varray>
  <varray name="velocities" >
   <v>       0.00000000       0.00000000       0.00000000 </v>
   <v>       0.00000000       0.00000000       0.00000000 </v>
   <v>       0.00000000       0.00000000       0.00000000 </v>
   <v>       0.00000000       0.00000000       0.00000000 </v>
   <v>       0.00000000       0.00000000       0.00000000 </v>
   <v>       0.00000000       0.00000000       0.00000000 </v>
  </varray>
 </structure>
</modeling>
