nqpoint: 561    
npath: 11     
segment_nqpoint:
- 51
- 51
- 51
- 51
- 51
- 51
- 51
- 51
- 51
- 51
- 51
reciprocal_lattice:
- [   0.31394048,   0.18125366,   0.00000000 ] # a*
- [   0.00000000,   0.36250733,   0.00000000 ] # b*
- [   0.00000000,   0.00000000,   0.06729459 ] # c*
natom: 6      
lattice:
- [     3.185317194465613,     0.000000000000000,     0.000000000000000 ] # a
- [    -1.592658597232806,     2.758564910718937,     0.000000000000000 ] # b
- [     0.000000000000000,     0.000000000000000,    14.860035077054938 ] # c
points:
- symbol: Mo # 1
  coordinates: [  0.666666999999997,  0.333333000000003,  0.250000000000000 ]
  mass: 95.960000
- symbol: Mo # 2
  coordinates: [  0.333333000000003,  0.666666999999997,  0.750000000000000 ]
  mass: 95.960000
- symbol: S  # 3
  coordinates: [  0.333333000000003,  0.666666999999997,  0.144902649198713 ]
  mass: 32.065000
- symbol: S  # 4
  coordinates: [  0.666666999999997,  0.333333000000003,  0.644902649198713 ]
  mass: 32.065000
- symbol: S  # 5
  coordinates: [  0.333333000000003,  0.666666999999997,  0.355097350801287 ]
  mass: 32.065000
- symbol: S  # 6
  coordinates: [  0.666666999999997,  0.333333000000003,  0.855097350801287 ]
  mass: 32.065000
supercell_matrix:
- [    1,    0,    0 ]
- [    0,    1,    0 ]
- [    0,    0,    1 ]

phonon:
- q-position: [    0.0000000,    0.0000000,    0.0000000 ]
  distance:    0.0000000
  label: '$\Gamma$'
  band:
  - # 1
    frequency:   -0.0325522824
  - # 2
    frequency:   -0.0161516351
  - # 3
    frequency:   -0.0123399287
  - # 4
    frequency:    0.4744111276
  - # 5
    frequency:    0.5087971816
  - # 6
    frequency:    0.7411205971
  - # 7
    frequency:    8.4062065079
  - # 8
    frequency:    8.4084410921
  - # 9
    frequency:    8.4126301812
  - # 10
    frequency:    8.4134942040
  - # 11
    frequency:   11.3186933207
  - # 12
    frequency:   11.3200346217
  - # 13
    frequency:   11.3277244639
  - # 14
    frequency:   11.3303585360
  - # 15
    frequency:   12.0347561589
  - # 16
    frequency:   12.1024140739
  - # 17
    frequency:   13.8417177834
  - # 18
    frequency:   13.8716424217

- q-position: [    0.0100000,    0.0000000,    0.0000000 ]
  distance:    0.0036251
  band:
  - # 1
    frequency:    0.1610784922
  - # 2
    frequency:    0.1635195146
  - # 3
    frequency:    0.2007973037
  - # 4
    frequency:    0.5019681474
  - # 5
    frequency:    0.5345775968
  - # 6
    frequency:    0.7677448768
  - # 7
    frequency:    8.4062065470
  - # 8
    frequency:    8.4084410531
  - # 9
    frequency:    8.4126302848
  - # 10
    frequency:    8.4134941005
  - # 11
    frequency:   11.3175046771
  - # 12
    frequency:   11.3188464659
  - # 13
    frequency:   11.3265326687
  - # 14
    frequency:   11.3291667193
  - # 15
    frequency:   12.0347710295
  - # 16
    frequency:   12.1023992858
  - # 17
    frequency:   13.8402666636
  - # 18
    frequency:   13.8701834532

- q-position: [    0.0200000,    0.0000000,    0.0000000 ]
  distance:    0.0072501
  band:
  - # 1
    frequency:    0.3269946830
  - # 2
    frequency:    0.3281748444
  - # 3
    frequency:    0.4020914168
  - # 4
    frequency:    0.5767599413
  - # 5
    frequency:    0.6053352842
  - # 6
    frequency:    0.8425510879
  - # 7
    frequency:    8.4062066641
  - # 8
    frequency:    8.4084409360
  - # 9
    frequency:    8.4126305951
  - # 10
    frequency:    8.4134937902
  - # 11
    frequency:   11.3139396898
  - # 12
    frequency:   11.3152829426
  - # 13
    frequency:   11.3229582271
  - # 14
    frequency:   11.3255922141
  - # 15
    frequency:   12.0348156214
  - # 16
    frequency:   12.1023549410
  - # 17
    frequency:   13.8359144600
  - # 18
    frequency:   13.8658077048

- q-position: [    0.0300000,    0.0000000,    0.0000000 ]
  distance:    0.0108752
  band:
  - # 1
    frequency:    0.4916936958
  - # 2
    frequency:    0.4924470318
  - # 3
    frequency:    0.6031156688
  - # 4
    frequency:    0.6833673823
  - # 5
    frequency:    0.7076244701
  - # 6
    frequency:    0.9541846644
  - # 7
    frequency:    8.4062068588
  - # 8
    frequency:    8.4084407414
  - # 9
    frequency:    8.4126311114
  - # 10
    frequency:    8.4134932740
  - # 11
    frequency:   11.3080011944
  - # 12
    frequency:   11.3093468899
  - # 13
    frequency:   11.3170039774
  - # 14
    frequency:   11.3196378611
  - # 15
    frequency:   12.0348898757
  - # 16
    frequency:   12.1022810976
  - # 17
    frequency:   13.8286646463
  - # 18
    frequency:   13.8585186546

- q-position: [    0.0400000,    0.0000000,    0.0000000 ]
  distance:    0.0145003
  band:
  - # 1
    frequency:    0.6559460403
  - # 2
    frequency:    0.6564771435
  - # 3
    frequency:    0.8038929116
  - # 4
    frequency:    0.8091953064
  - # 5
    frequency:    0.8297506521
  - # 6
    frequency:    1.0912715868
  - # 7
    frequency:    8.4062071304
  - # 8
    frequency:    8.4084404699
  - # 9
    frequency:    8.4126318324
  - # 10
    frequency:    8.4134925530
  - # 11
    frequency:   11.2996939363
  - # 12
    frequency:   11.3010430575
  - # 13
    frequency:   11.3086746697
  - # 14
    frequency:   11.3113084143
  - # 15
    frequency:   12.0349936936
  - # 16
    frequency:   12.1021778527
  - # 17
    frequency:   13.8185230365
  - # 18
    frequency:   13.8483221236

- q-position: [    0.0500000,    0.0000000,    0.0000000 ]
  distance:    0.0181254
  band:
  - # 1
    frequency:    0.8198554776
  - # 2
    frequency:    0.8202458958
  - # 3
    frequency:    0.9464677541
  - # 4
    frequency:    0.9640657740
  - # 5
    frequency:    1.0043698152
  - # 6
    frequency:    1.2452735711
  - # 7
    frequency:    8.4062074778
  - # 8
    frequency:    8.4084401227
  - # 9
    frequency:    8.4126327562
  - # 10
    frequency:    8.4134916291
  - # 11
    frequency:   11.2890246005
  - # 12
    frequency:   11.2903781365
  - # 13
    frequency:   11.2979769954
  - # 14
    frequency:   11.3006105709
  - # 15
    frequency:   12.0351269369
  - # 16
    frequency:   12.1020453424
  - # 17
    frequency:   13.8054978201
  - # 18
    frequency:   13.8352263118

- q-position: [    0.0600000,    0.0000000,    0.0000000 ]
  distance:    0.0217504
  band:
  - # 1
    frequency:    0.9834165141
  - # 2
    frequency:    0.9837070476
  - # 3
    frequency:    1.0907138948
  - # 4
    frequency:    1.1059819032
  - # 5
    frequency:    1.2044796277
  - # 6
    frequency:    1.4104779757
  - # 7
    frequency:    8.4062078997
  - # 8
    frequency:    8.4084397009
  - # 9
    frequency:    8.4126338806
  - # 10
    frequency:    8.4134905048
  - # 11
    frequency:   11.2760018537
  - # 12
    frequency:   11.2773608012
  - # 13
    frequency:   11.2849196298
  - # 14
    frequency:   11.2875530133
  - # 15
    frequency:   12.0352894274
  - # 16
    frequency:   12.1018837420
  - # 17
    frequency:   13.7895996148
  - # 18
    frequency:   13.8192418499

- q-position: [    0.0700000,    0.0000000,    0.0000000 ]
  distance:    0.0253755
  band:
  - # 1
    frequency:    1.1465922011
  - # 2
    frequency:    1.1468062551
  - # 3
    frequency:    1.2393300001
  - # 4
    frequency:    1.2527491469
  - # 5
    frequency:    1.4041515904
  - # 6
    frequency:    1.5831816763
  - # 7
    frequency:    8.4062083946
  - # 8
    frequency:    8.4084392062
  - # 9
    frequency:    8.4126352027
  - # 10
    frequency:    8.4134891827
  - # 11
    frequency:   11.2606363995
  - # 12
    frequency:   11.2620017647
  - # 13
    frequency:   11.2695132870
  - # 14
    frequency:   11.2721464649
  - # 15
    frequency:   12.0354809470
  - # 16
    frequency:   12.1016932662
  - # 17
    frequency:   13.7708415333
  - # 18
    frequency:   13.8003818678

- q-position: [    0.0800000,    0.0000000,    0.0000000 ]
  distance:    0.0290006
  band:
  - # 1
    frequency:    1.3093333656
  - # 2
    frequency:    1.3094856850
  - # 3
    frequency:    1.3907348065
  - # 4
    frequency:    1.4026660570
  - # 5
    frequency:    1.6033126945
  - # 6
    frequency:    1.7609660336
  - # 7
    frequency:    8.4062089605
  - # 8
    frequency:    8.4084386404
  - # 9
    frequency:    8.4126367190
  - # 10
    frequency:    8.4134876665
  - # 11
    frequency:   11.2429410482
  - # 12
    frequency:   11.2443138487
  - # 13
    frequency:   11.2517707903
  - # 14
    frequency:   11.2544037597
  - # 15
    frequency:   12.0357012370
  - # 16
    frequency:   12.1014741695
  - # 17
    frequency:   13.7492392695
  - # 18
    frequency:   13.7786620794

- q-position: [    0.0900000,    0.0000000,    0.0000000 ]
  distance:    0.0326257
  band:
  - # 1
    frequency:    1.4715849060
  - # 2
    frequency:    1.4716854638
  - # 3
    frequency:    1.5439190489
  - # 4
    frequency:    1.5546339381
  - # 5
    frequency:    1.8018883723
  - # 6
    frequency:    1.9422118111
  - # 7
    frequency:    8.4062095955
  - # 8
    frequency:    8.4084380056
  - # 9
    frequency:    8.4126384256
  - # 10
    frequency:    8.4134859599
  - # 11
    frequency:   11.2229308017
  - # 12
    frequency:   11.2243120684
  - # 13
    frequency:   11.2317071574
  - # 14
    frequency:   11.2343399281
  - # 15
    frequency:   12.0359499980
  - # 16
    frequency:   12.1012267468
  - # 17
    frequency:   13.7248112016
  - # 18
    frequency:   13.7541008876

- q-position: [    0.1000000,    0.0000000,    0.0000000 ]
  distance:    0.0362507
  band:
  - # 1
    frequency:    1.6332881915
  - # 2
    frequency:    1.6333441884
  - # 3
    frequency:    1.6982054139
  - # 4
    frequency:    1.7079106416
  - # 5
    frequency:    1.9998026139
  - # 6
    frequency:    2.1258000742
  - # 7
    frequency:    8.4062102970
  - # 8
    frequency:    8.4084373043
  - # 9
    frequency:    8.4126403181
  - # 10
    frequency:    8.4134840674
  - # 11
    frequency:   11.2006229555
  - # 12
    frequency:   11.2020137348
  - # 13
    frequency:   11.2093397022
  - # 14
    frequency:   11.2119722987
  - # 15
    frequency:   12.0362268894
  - # 16
    frequency:   12.1009513335
  - # 17
    frequency:   13.6975785180
  - # 18
    frequency:   13.7267195094

- q-position: [    0.1100000,    0.0000000,    0.0000000 ]
  distance:    0.0398758
  band:
  - # 1
    frequency:    1.7943817377
  - # 2
    frequency:    1.7943993856
  - # 3
    frequency:    1.8531168268
  - # 4
    frequency:    1.8619720892
  - # 5
    frequency:    2.1969779074
  - # 6
    frequency:    2.3109307996
  - # 7
    frequency:    8.4062110625
  - # 8
    frequency:    8.4084365391
  - # 9
    frequency:    8.4126423914
  - # 10
    frequency:    8.4134819942
  - # 11
    frequency:   11.1760372196
  - # 12
    frequency:   11.1774385750
  - # 13
    frequency:   11.1846881563
  - # 14
    frequency:   11.1873206197
  - # 15
    frequency:   12.0365315284
  - # 16
    frequency:   12.1006483066
  - # 17
    frequency:   13.6675653641
  - # 18
    frequency:   13.6965421239

- q-position: [    0.1200000,    0.0000000,    0.0000000 ]
  distance:    0.0435009
  band:
  - # 1
    frequency:    1.9547841190
  - # 2
    frequency:    1.9548049734
  - # 3
    frequency:    2.0083013986
  - # 4
    frequency:    2.0164319698
  - # 5
    frequency:    2.3933350916
  - # 6
    frequency:    2.4970118606
  - # 7
    frequency:    8.4062118890
  - # 8
    frequency:    8.4084357129
  - # 9
    frequency:    8.4126446400
  - # 10
    frequency:    8.4134797456
  - # 11
    frequency:   11.1491958599
  - # 12
    frequency:   11.1506088747
  - # 13
    frequency:   11.1577748109
  - # 14
    frequency:   11.1604072013
  - # 15
    frequency:   12.0368634897
  - # 16
    frequency:   12.1003180849
  - # 17
    frequency:   13.6347990168
  - # 18
    frequency:   13.6635960469

- q-position: [    0.1300000,    0.0000000,    0.0000000 ]
  distance:    0.0471259
  band:
  - # 1
    frequency:    2.1144365334
  - # 2
    frequency:    2.1144886955
  - # 3
    frequency:    2.1634879686
  - # 4
    frequency:    2.1709935628
  - # 5
    frequency:    2.5887931518
  - # 6
    frequency:    2.6835897289
  - # 7
    frequency:    8.4062127735
  - # 8
    frequency:    8.4084348287
  - # 9
    frequency:    8.4126470577
  - # 10
    frequency:    8.4134773279
  - # 11
    frequency:   11.1201238638
  - # 12
    frequency:   11.1215496431
  - # 13
    frequency:   11.1286246827
  - # 14
    frequency:   11.1312570812
  - # 15
    frequency:   12.0372223047
  - # 16
    frequency:   12.0999611306
  - # 17
    frequency:   13.5993100858
  - # 18
    frequency:   13.6279119333

- q-position: [    0.1400000,    0.0000000,    0.0000000 ]
  distance:    0.0507510
  band:
  - # 1
    frequency:    2.2732866466
  - # 2
    frequency:    2.2733680603
  - # 3
    frequency:    2.3184587761
  - # 4
    frequency:    2.3254198428
  - # 5
    frequency:    2.7832689720
  - # 6
    frequency:    2.8703051741
  - # 7
    frequency:    8.4062137125
  - # 8
    frequency:    8.4084338901
  - # 9
    frequency:    8.4126496380
  - # 10
    frequency:    8.4134747476
  - # 11
    frequency:   11.0888491320
  - # 12
    frequency:   11.0902888051
  - # 13
    frequency:   11.0972657062
  - # 14
    frequency:   11.0998982175
  - # 15
    frequency:   12.0376074598
  - # 16
    frequency:   12.0995779496
  - # 17
    frequency:   13.5611327496
  - # 18
    frequency:   13.5895240135

- q-position: [    0.1500000,    0.0000000,    0.0000000 ]
  distance:    0.0543761
  band:
  - # 1
    frequency:    2.4312650574
  - # 2
    frequency:    2.4313735153
  - # 3
    frequency:    2.4730320618
  - # 4
    frequency:    2.4795143138
  - # 5
    frequency:    2.9766770435
  - # 6
    frequency:    3.0568642210
  - # 7
    frequency:    8.4062147025
  - # 8
    frequency:    8.4084329004
  - # 9
    frequency:    8.4126523736
  - # 10
    frequency:    8.4134720120
  - # 11
    frequency:   11.0554027012
  - # 12
    frequency:   11.0568574242
  - # 13
    frequency:   11.0637289573
  - # 14
    frequency:   11.0663617120
  - # 15
    frequency:   12.0380183959
  - # 16
    frequency:   12.0991690933
  - # 17
    frequency:   13.5203050269
  - # 18
    frequency:   13.5484703663

- q-position: [    0.1600000,    0.0000000,    0.0000000 ]
  distance:    0.0580012
  band:
  - # 1
    frequency:    2.5882998813
  - # 2
    frequency:    2.5884333878
  - # 3
    frequency:    2.6270506152
  - # 4
    frequency:    2.6331083326
  - # 5
    frequency:    3.1689291305
  - # 6
    frequency:    3.2430186172
  - # 7
    frequency:    8.4062157397
  - # 8
    frequency:    8.4084318636
  - # 9
    frequency:    8.4126552568
  - # 10
    frequency:    8.4134691289
  - # 11
    frequency:   11.0198190009
  - # 12
    frequency:   11.0212899594
  - # 13
    frequency:   11.0280489105
  - # 14
    frequency:   11.0306820682
  - # 15
    frequency:   12.0384545066
  - # 16
    frequency:   12.0987351599
  - # 17
    frequency:   13.4768690921
  - # 18
    frequency:   13.5047932348

- q-position: [    0.1700000,    0.0000000,    0.0000000 ]
  distance:    0.0616262
  band:
  - # 1
    frequency:    2.7443166571
  - # 2
    frequency:    2.7444733973
  - # 3
    frequency:    2.7803739848
  - # 4
    frequency:    2.7860524604
  - # 5
    frequency:    3.3599338858
  - # 6
    frequency:    3.4285523551
  - # 7
    frequency:    8.4062168201
  - # 8
    frequency:    8.4084307835
  - # 9
    frequency:    8.4126582791
  - # 10
    frequency:    8.4134661065
  - # 11
    frequency:   10.9821361510
  - # 12
    frequency:   10.9836245627
  - # 13
    frequency:   10.9902637377
  - # 14
    frequency:   10.9928974896
  - # 15
    frequency:   12.0389151363
  - # 16
    frequency:   12.0982767965
  - # 17
    frequency:   13.4308716383
  - # 18
    frequency:   13.4585393915

- q-position: [    0.1800000,    0.0000000,    0.0000000 ]
  distance:    0.0652513
  band:
  - # 1
    frequency:    2.8992380120
  - # 2
    frequency:    2.8994163042
  - # 3
    frequency:    2.9328730014
  - # 4
    frequency:    2.9382103755
  - # 5
    frequency:    3.5495964112
  - # 6
    frequency:    3.6132721204
  - # 7
    frequency:    8.4062179396
  - # 8
    frequency:    8.4084296643
  - # 9
    frequency:    8.4126614317
  - # 10
    frequency:    8.4134629539
  - # 11
    frequency:   10.9423963048
  - # 12
    frequency:   10.9439034224
  - # 13
    frequency:   10.9504156520
  - # 14
    frequency:   10.9530502240
  - # 15
    frequency:   12.0393995783
  - # 16
    frequency:   12.0977947008
  - # 17
    frequency:   13.3823642975
  - # 18
    frequency:   13.4097605595

- q-position: [    0.1900000,    0.0000000,    0.0000000 ]
  distance:    0.0688764
  band:
  - # 1
    frequency:    3.0529832579
  - # 2
    frequency:    3.0531815122
  - # 3
    frequency:    3.0844257875
  - # 4
    frequency:    3.0894544432
  - # 5
    frequency:    3.7378177538
  - # 6
    frequency:    3.7970003323
  - # 7
    frequency:    8.4062190940
  - # 8
    frequency:    8.4084285103
  - # 9
    frequency:    8.4126647050
  - # 10
    frequency:    8.4134596806
  - # 11
    frequency:   10.9006460450
  - # 12
    frequency:   10.9021731595
  - # 13
    frequency:   10.9085513050
  - # 14
    frequency:   10.9111869612
  - # 15
    frequency:   12.0399070722
  - # 16
    frequency:   12.0972896237
  - # 17
    frequency:   13.3314041250
  - # 18
    frequency:   13.3585138995

- q-position: [    0.2000000,    0.0000000,    0.0000000 ]
  distance:    0.0725015
  band:
  - # 1
    frequency:    3.2054679233
  - # 2
    frequency:    3.2056846080
  - # 3
    frequency:    3.2349147345
  - # 4
    frequency:    3.2396623720
  - # 5
    frequency:    3.9244943282
  - # 6
    frequency:    3.9795699125
  - # 7
    frequency:    8.4062202787
  - # 8
    frequency:    8.4084273260
  - # 9
    frequency:    8.4126680891
  - # 10
    frequency:    8.4134562965
  - # 11
    frequency:   10.8569368418
  - # 12
    frequency:   10.8584852852
  - # 13
    frequency:   10.8647222464
  - # 14
    frequency:   10.8673592921
  - # 15
    frequency:   12.0404368010
  - # 16
    frequency:   12.0967623728
  - # 17
    frequency:   13.2780541593
  - # 18
    frequency:   13.3048625712

- q-position: [    0.2100000,    0.0000000,    0.0000000 ]
  distance:    0.0761265
  band:
  - # 1
    frequency:    3.3566032138
  - # 2
    frequency:    3.3568368277
  - # 3
    frequency:    3.3842241111
  - # 4
    frequency:    3.3887145848
  - # 5
    frequency:    4.1095172520
  - # 6
    frequency:    4.1608202159
  - # 7
    frequency:    8.4062214891
  - # 8
    frequency:    8.4084261160
  - # 9
    frequency:    8.4126715732
  - # 10
    frequency:    8.4134528123
  - # 11
    frequency:   10.8113255817
  - # 12
    frequency:   10.8128967306
  - # 13
    frequency:   10.8189854542
  - # 14
    frequency:   10.8216242401
  - # 15
    frequency:   12.0409878874
  - # 16
    frequency:   12.0962138153
  - # 17
    frequency:   13.2223840692
  - # 18
    frequency:   13.2488763838

- q-position: [    0.2200000,    0.0000000,    0.0000000 ]
  distance:    0.0797516
  band:
  - # 1
    frequency:    3.5062953895
  - # 2
    frequency:    3.5065444390
  - # 3
    frequency:    3.5322380778
  - # 4
    frequency:    3.5364920548
  - # 5
    frequency:    4.2927715817
  - # 6
    frequency:    4.3405937394
  - # 7
    frequency:    8.4062227206
  - # 8
    frequency:    8.4084248849
  - # 9
    frequency:    8.4126751461
  - # 10
    frequency:    8.4134492394
  - # 11
    frequency:   10.7638751791
  - # 12
    frequency:   10.7654704576
  - # 13
    frequency:   10.7714039487
  - # 14
    frequency:   10.7740448742
  - # 15
    frequency:   12.0415593898
  - # 16
    frequency:   12.0956448828
  - # 17
    frequency:   13.1644709010
  - # 18
    frequency:   13.1906325462

- q-position: [    0.2300000,    0.0000000,    0.0000000 ]
  distance:    0.0833767
  band:
  - # 1
    frequency:    3.6544450467
  - # 2
    frequency:    3.6547080268
  - # 3
    frequency:    3.6788389500
  - # 4
    frequency:    3.6828744346
  - # 5
    frequency:    4.4741354317
  - # 6
    frequency:    4.5187333412
  - # 7
    frequency:    8.4062239684
  - # 8
    frequency:    8.4084236375
  - # 9
    frequency:    8.4126787959
  - # 10
    frequency:    8.4134455894
  - # 11
    frequency:   10.7146552842
  - # 12
    frequency:   10.7162761675
  - # 13
    frequency:   10.7220475024
  - # 14
    frequency:   10.7246910201
  - # 15
    frequency:   12.0421502972
  - # 16
    frequency:   12.0950565760
  - # 17
    frequency:   13.1043999442
  - # 18
    frequency:   13.1302165369

- q-position: [    0.2400000,    0.0000000,    0.0000000 ]
  distance:    0.0870017
  band:
  - # 1
    frequency:    3.8009462890
  - # 2
    frequency:    3.8012216660
  - # 3
    frequency:    3.8239055991
  - # 4
    frequency:    3.8277383538
  - # 5
    frequency:    4.6534789566
  - # 6
    frequency:    4.6950797796
  - # 7
    frequency:    8.4062252275
  - # 8
    frequency:    8.4084223787
  - # 9
    frequency:    8.4126825103
  - # 10
    frequency:    8.4134418748
  - # 11
    frequency:   10.6637431024
  - # 12
    frequency:   10.6653911198
  - # 13
    frequency:   10.6709934621
  - # 14
    frequency:   10.6736400816
  - # 15
    frequency:   12.0427595233
  - # 16
    frequency:   12.0944499708
  - # 17
    frequency:   13.0422657323
  - # 18
    frequency:   13.0677231093

- q-position: [    0.2500000,    0.0000000,    0.0000000 ]
  distance:    0.0906268
  band:
  - # 1
    frequency:    3.9456857685
  - # 2
    frequency:    3.9459719651
  - # 3
    frequency:    3.9673119046
  - # 4
    frequency:    3.9709557916
  - # 5
    frequency:    4.8306631765
  - # 6
    frequency:    4.8694694284
  - # 7
    frequency:    8.4062264931
  - # 8
    frequency:    8.4084211135
  - # 9
    frequency:    8.4126862764
  - # 10
    frequency:    8.4134381086
  - # 11
    frequency:   10.6112243433
  - # 12
    frequency:   10.6129010808
  - # 13
    frequency:   10.6183277011
  - # 14
    frequency:   10.6209779935
  - # 15
    frequency:   12.0433858990
  - # 16
    frequency:   12.0938262255
  - # 17
    frequency:   12.9781732025
  - # 18
    frequency:   13.0032574574

- q-position: [    0.2600000,    0.0000000,    0.0000000 ]
  distance:    0.0942519
  band:
  - # 1
    frequency:    4.0885415770
  - # 2
    frequency:    4.0888369589
  - # 3
    frequency:    4.1089251906
  - # 4
    frequency:    4.1123924513
  - # 5
    frequency:    5.0055386191
  - # 6
    frequency:    5.0417320582
  - # 7
    frequency:    8.4062277601
  - # 8
    frequency:    8.4084198469
  - # 9
    frequency:    8.4126900805
  - # 10
    frequency:    8.4134343043
  - # 11
    frequency:   10.5571943194
  - # 12
    frequency:   10.5589014226
  - # 13
    frequency:   10.5641457220
  - # 14
    frequency:   10.5668003236
  - # 15
    frequency:   12.0440281647
  - # 16
    frequency:   12.0931865891
  - # 17
    frequency:   12.9122390371
  - # 18
    frequency:   12.9369365645

- q-position: [    0.2700000,    0.0000000,    0.0000000 ]
  distance:    0.0978770
  band:
  - # 1
    frequency:    4.2293819645
  - # 2
    frequency:    4.2296848284
  - # 3
    frequency:    4.2486045895
  - # 4
    frequency:    4.2519060755
  - # 5
    frequency:    5.1779437492
  - # 6
    frequency:    5.2116885948
  - # 7
    frequency:    8.4062290236
  - # 8
    frequency:    8.4084185837
  - # 9
    frequency:    8.4126939086
  - # 10
    frequency:    8.4134304759
  - # 11
    frequency:   10.5017592180
  - # 12
    frequency:   10.5034983939
  - # 13
    frequency:   10.5085539329
  - # 14
    frequency:   10.5112135497
  - # 15
    frequency:   12.0446849594
  - # 16
    frequency:   12.0925324116
  - # 17
    frequency:   12.8445932169
  - # 18
    frequency:   12.8688907650

- q-position: [    0.2800000,    0.0000000,    0.0000000 ]
  distance:    0.1015020
  band:
  - # 1
    frequency:    4.3680638583
  - # 2
    frequency:    4.3683724206
  - # 3
    frequency:    4.3861992825
  - # 4
    frequency:    4.3893446488
  - # 5
    frequency:    5.3477031562
  - # 6
    frequency:    5.3791487772
  - # 7
    frequency:    8.4062302786
  - # 8
    frequency:    8.4084173291
  - # 9
    frequency:    8.4126977462
  - # 10
    frequency:    8.4134266380
  - # 11
    frequency:   10.4450375731
  - # 12
    frequency:   10.4468105907
  - # 13
    frequency:   10.4516711240
  - # 14
    frequency:   10.4543365352
  - # 15
    frequency:   12.0453548091
  - # 16
    frequency:   12.0918651561
  - # 17
    frequency:   12.7753808162
  - # 18
    frequency:   12.7992655502

- q-position: [    0.2900000,    0.0000000,    0.0000000 ]
  distance:    0.1051271
  band:
  - # 1
    frequency:    4.5044311545
  - # 2
    frequency:    4.5047435412
  - # 3
    frequency:    4.5215465710
  - # 4
    frequency:    4.5245444393
  - # 5
    frequency:    5.5146254627
  - # 6
    frequency:    5.5439086490
  - # 7
    frequency:    8.4062315200
  - # 8
    frequency:    8.4084160880
  - # 9
    frequency:    8.4127015781
  - # 10
    frequency:    8.4134228058
  - # 11
    frequency:   10.3871619628
  - # 12
    frequency:   10.3889706528
  - # 13
    frequency:   10.3936301718
  - # 14
    frequency:   10.3963022327
  - # 15
    frequency:   12.0460361124
  - # 16
    frequency:   12.0911864128
  - # 17
    frequency:   12.7047640745
  - # 18
    frequency:   12.7282236530

- q-position: [    0.3000000,    0.0000000,    0.0000000 ]
  distance:    0.1087522
  band:
  - # 1
    frequency:    4.6383127521
  - # 2
    frequency:    4.6386269912
  - # 3
    frequency:    4.6544697375
  - # 4
    frequency:    4.6573278360
  - # 5
    frequency:    5.6785009199
  - # 6
    frequency:    5.7057478226
  - # 7
    frequency:    8.4062327430
  - # 8
    frequency:    8.4084148654
  - # 9
    frequency:    8.4127053887
  - # 10
    frequency:    8.4134189947
  - # 11
    frequency:   10.3282809645
  - # 12
    frequency:   10.3301272164
  - # 13
    frequency:   10.3345800013
  - # 14
    frequency:   10.3372596458
  - # 15
    frequency:   12.0467271230
  - # 16
    frequency:   12.0904979164
  - # 17
    frequency:   12.6329247793
  - # 18
    frequency:   12.6559474471

- q-position: [    0.3100000,    0.0000000,    0.0000000 ]
  distance:    0.1123773
  band:
  - # 1
    frequency:    4.7695203014
  - # 2
    frequency:    4.7698343160
  - # 3
    frequency:    4.7847756545
  - # 4
    frequency:    4.7875009403
  - # 5
    frequency:    5.8390986539
  - # 6
    frequency:    5.8644264631
  - # 7
    frequency:    8.4062339425
  - # 8
    frequency:    8.4084136661
  - # 9
    frequency:    8.4127091621
  - # 10
    frequency:    8.4134152208
  - # 11
    frequency:   10.2685613953
  - # 12
    frequency:   10.2704471522
  - # 13
    frequency:   10.2746878349
  - # 14
    frequency:   10.2773760757
  - # 15
    frequency:   12.0474259297
  - # 16
    frequency:   12.0898015660
  - # 17
    frequency:   12.5600669962
  - # 18
    frequency:   12.5826416975

- q-position: [    0.3200000,    0.0000000,    0.0000000 ]
  distance:    0.1160023
  band:
  - # 1
    frequency:    4.8978456387
  - # 2
    frequency:    4.8981572435
  - # 3
    frequency:    4.9122521107
  - # 4
    frequency:    4.9148508787
  - # 5
    frequency:    5.9961635312
  - # 6
    frequency:    6.0196819456
  - # 7
    frequency:    8.4062351138
  - # 8
    frequency:    8.4084124950
  - # 9
    frequency:    8.4127128820
  - # 10
    frequency:    8.4134115004
  - # 11
    frequency:   10.2081908642
  - # 12
    frequency:   10.2101181130
  - # 13
    frequency:   10.2141417540
  - # 14
    frequency:   10.2168396813
  - # 15
    frequency:   12.0481304319
  - # 16
    frequency:   12.0890994487
  - # 17
    frequency:   12.4864201761
  - # 18
    frequency:   12.5085366922

- q-position: [    0.3300000,    0.0000000,    0.0000000 ]
  distance:    0.1196274
  band:
  - # 1
    frequency:    5.0230578911
  - # 2
    frequency:    5.0233647927
  - # 3
    frequency:    5.0366648297
  - # 4
    frequency:    5.0391428131
  - # 5
    frequency:    6.1494126220
  - # 6
    frequency:    6.1712251548
  - # 7
    frequency:    8.4062362523
  - # 8
    frequency:    8.4084113568
  - # 9
    frequency:    8.4127165317
  - # 10
    frequency:    8.4134078501
  - # 11
    frequency:   10.1473806534
  - # 12
    frequency:   10.1493514101
  - # 13
    frequency:   10.1531535919
  - # 14
    frequency:   10.1558623689
  - # 15
    frequency:   12.0488383111
  - # 16
    frequency:   12.0883938667
  - # 17
    frequency:   12.4122426605
  - # 18
    frequency:   12.4338917803

- q-position: [    0.3400000,    0.0000000,    0.0000000 ]
  distance:    0.1232525
  band:
  - # 1
    frequency:    5.1449002475
  - # 2
    frequency:    5.1452000498
  - # 3
    frequency:    5.1577541746
  - # 4
    frequency:    5.1601166395
  - # 5
    frequency:    6.2985312598
  - # 6
    frequency:    6.3187364166
  - # 7
    frequency:    8.4062373532
  - # 8
    frequency:    8.4084102562
  - # 9
    frequency:    8.4127200942
  - # 10
    frequency:    8.4134042868
  - # 11
    frequency:   10.0863689315
  - # 12
    frequency:   10.0883852192
  - # 13
    frequency:   10.0919621598
  - # 14
    frequency:   10.0946830143
  - # 15
    frequency:   12.0495469963
  - # 16
    frequency:   12.0876873677
  - # 17
    frequency:   12.3378255869
  - # 18
    frequency:   12.3589993181

- q-position: [    0.3500000,    0.0000000,    0.0000000 ]
  distance:    0.1268775
  band:
  - # 1
    frequency:    5.2630864208
  - # 2
    frequency:    5.2633766378
  - # 3
    frequency:    5.2752315602
  - # 4
    frequency:    5.2774833991
  - # 5
    frequency:    6.4431687284
  - # 6
    frequency:    6.4618610847
  - # 7
    frequency:    8.4062384121
  - # 8
    frequency:    8.4084091974
  - # 9
    frequency:    8.4127235527
  - # 10
    frequency:    8.4134008275
  - # 11