mesh: [    64,    64,     1 ]
nqpoint: 363    
reciprocal_lattice:
- [   0.31394048,   0.18125366,   0.00000000 ] # a*
- [   0.00000000,   0.36250733,   0.00000000 ] # b*
- [   0.00000000,   0.00000000,   0.06729459 ] # c*
natom:   6      
lattice:
- [     3.185317194465613,     0.000000000000000,     0.000000000000000 ] # a
- [    -1.592658597232806,     2.758564910718937,     0.000000000000000 ] # b
- [     0.000000000000000,     0.000000000000000,    14.860035077054938 ] # c
points:
- symbol: Mo # 1
  coordinates: [  0.666666999999997,  0.333333000000003,  0.250000000000000 ]
  mass: 95.960000
- symbol: Mo # 2
  coordinates: [  0.333333000000003,  0.666666999999997,  0.750000000000000 ]
  mass: 95.960000
- symbol: S  # 3
  coordinates: [  0.333333000000003,  0.666666999999997,  0.144902649198713 ]
  mass: 32.065000
- symbol: S  # 4
  coordinates: [  0.666666999999997,  0.333333000000003,  0.644902649198713 ]
  mass: 32.065000
- symbol: S  # 5
  coordinates: [  0.333333000000003,  0.666666999999997,  0.355097350801287 ]
  mass: 32.065000
- symbol: S  # 6
  coordinates: [  0.666666999999997,  0.333333000000003,  0.855097350801287 ]
  mass: 32.065000
phonon:
- q-position: [    0.0078125,    0.0078125,    0.0000000 ]
  weight: 4    
  band:
  - # 1
    frequency:     0.2199654183
  - # 2
    frequency:     0.2217472167
  - # 3
    frequency:     0.2719312106
  - # 4
    frequency:     0.5237629325
  - # 5
    frequency:     0.5550879104
  - # 6
    frequency:     0.7891834072
  - # 7
    frequency:     8.4062065795
  - # 8
    frequency:     8.4084410206
  - # 9
    frequency:     8.4126303708
  - # 10
    frequency:     8.4134940145
  - # 11
    frequency:    11.3165169689
  - # 12
    frequency:    11.3178591630
  - # 13
    frequency:    11.3255423412
  - # 14
    frequency:    11.3281763741
  - # 15
    frequency:    12.0347833852
  - # 16
    frequency:    12.1023869986
  - # 17
    frequency:    13.8390608501
  - # 18
    frequency:    13.8689711172

- q-position: [    0.0234375,    0.0078125,    0.0000000 ]
  weight: 10   
  band:
  - # 1
    frequency:     0.4615672084
  - # 2
    frequency:     0.4623769533
  - # 3
    frequency:     0.5663128668
  - # 4
    frequency:     0.6621017196
  - # 5
    frequency:     0.6871157558
  - # 6
    frequency:     0.9315302123
  - # 7
    frequency:     8.4062068174
  - # 8
    frequency:     8.4084407828
  - # 9
    frequency:     8.4126310014
  - # 10
    frequency:     8.4134933839
  - # 11
    frequency:    11.3092662711
  - # 12
    frequency:    11.3106114458
  - # 13
    frequency:    11.3182724108
  - # 14
    frequency:    11.3209063163
  - # 15
    frequency:    12.0348740601
  - # 16
    frequency:    12.1022968258
  - # 17
    frequency:    13.8302090716
  - # 18
    frequency:    13.8600714401

- q-position: [    0.0390625,    0.0078125,    0.0000000 ]
  weight: 10   
  band:
  - # 1
    frequency:     0.7133226375
  - # 2
    frequency:     0.7137981321
  - # 3
    frequency:     0.8561955231
  - # 4
    frequency:     0.8740600703
  - # 5
    frequency:     0.8756363556
  - # 6
    frequency:     1.1435649374
  - # 7
    frequency:     8.4062072433
  - # 8
    frequency:     8.4084403570
  - # 9
    frequency:     8.4126321326
  - # 10
    frequency:     8.4134922528
  - # 11
    frequency:    11.2962298369
  - # 12
    frequency:    11.2975803897
  - # 13
    frequency:    11.3052013718
  - # 14
    frequency:    11.3078350604
  - # 15
    frequency:    12.0350369664
  - # 16
    frequency:    12.1021348183
  - # 17
    frequency:    13.8142940283
  - # 18
    frequency:    13.8440702018

- q-position: [    0.0546875,    0.0078125,    0.0000000 ]
  weight: 10   
  band:
  - # 1
    frequency:     0.9668011937
  - # 2
    frequency:     0.9671006178
  - # 3
    frequency:     1.0758127111
  - # 4
    frequency:     1.0912933766
  - # 5
    frequency:     1.1841496788
  - # 6
    frequency:     1.3932863086
  - # 7
    frequency:     8.4062078534
  - # 8
    frequency:     8.4084397471
  - # 9
    frequency:     8.4126337572
  - # 10
    frequency:     8.4134906282
  - # 11
    frequency:    11.2774333051
  - # 12
    frequency:    11.2787916565
  - # 13
    frequency:    11.2863548881
  - # 14
    frequency:    11.2889882919
  - # 15
    frequency:    12.0352715743
  - # 16
    frequency:    12.1019014976
  - # 17
    frequency:    13.7913471305
  - # 18
    frequency:    13.8209988518

- q-position: [    0.0703125,    0.0078125,    0.0000000 ]
  weight: 10   
  band:
  - # 1
    frequency:     1.2203153654
  - # 2
    frequency:     1.2204999951
  - # 3
    frequency:     1.3075895506
  - # 4
    frequency:     1.3202964947
  - # 5
    frequency:     1.4943712312
  - # 6
    frequency:     1.6631394017
  - # 7
    frequency:     8.4062086421
  - # 8
    frequency:     8.4084389587
  - # 9
    frequency:     8.4126358652
  - # 10
    frequency:     8.4134885202
  - # 11
    frequency:    11.2529142310
  - # 12
    frequency:    11.2542828350
  - # 13
    frequency:    11.2617705519
  - # 14
    frequency:    11.2644036351
  - # 15
    frequency:    12.0355771160
  - # 16
    frequency:    12.1015976190
  - # 17
    frequency:    13.7614143871
  - # 18
    frequency:    13.7909034572

- q-position: [    0.0859375,    0.0078125,    0.0000000 ]
  weight: 10   
  band:
  - # 1
    frequency:     1.4731771135
  - # 2
    frequency:     1.4732772016
  - # 3
    frequency:     1.5454311364
  - # 4
    frequency:     1.5561351848
  - # 5
    frequency:     1.8038370888
  - # 6
    frequency:     1.9440064934
  - # 7
    frequency:     8.4062096021
  - # 8
    frequency:     8.4084379991
  - # 9
    frequency:     8.4126384433
  - # 10
    frequency:     8.4134859422
  - # 11
    frequency:    11.2227226804
  - # 12
    frequency:    11.2241040355
  - # 13
    frequency:    11.2314984804
  - # 14
    frequency:    11.2341312492
  - # 15
    frequency:    12.0359525834
  - # 16
    frequency:    12.1012241752
  - # 17
    frequency:    13.7245571328
  - # 18
    frequency:    13.7538454329

- q-position: [    0.1015625,    0.0078125,    0.0000000 ]
  weight: 10   
  band:
  - # 1
    frequency:     1.7249614091
  - # 2
    frequency:     1.7249947286
  - # 3
    frequency:     1.7862328647
  - # 4
    frequency:     1.7954376798
  - # 5
    frequency:     2.1120079179
  - # 6
    frequency:     2.2309140241
  - # 7
    frequency:     8.4062107246
  - # 8
    frequency:     8.4084368769
  - # 9
    frequency:     8.4126414751
  - # 10
    frequency:     8.4134829104
  - # 11
    frequency:    11.1869220465
  - # 12
    frequency:    11.1883187075
  - # 13
    frequency:    11.1956021340
  - # 14
    frequency:    11.1982346487
  - # 15
    frequency:    12.0363967236
  - # 16
    frequency:    12.1007823998
  - # 17
    frequency:    13.6808530287
  - # 18
    frequency:    13.7099025448

- q-position: [    0.1171875,    0.0078125,    0.0000000 ]
  weight: 10   
  band:
  - # 1
    frequency:     1.9753099148
  - # 2
    frequency:     1.9753348254
  - # 3
    frequency:     2.0282166050
  - # 4
    frequency:     2.0362618747
  - # 5
    frequency:     2.4184641942
  - # 6
    frequency:     2.5209301940
  - # 7
    frequency:     8.4062119993
  - # 8
    frequency:     8.4084356026
  - # 9
    frequency:     8.4126449408
  - # 10
    frequency:     8.4134794447
  - # 11
    frequency:    11.1455901265
  - # 12
    frequency:    11.1470047167
  - # 13
    frequency:    11.1541593962
  - # 14
    frequency:    11.1567917827
  - # 15
    frequency:    12.0369080341
  - # 16
    frequency:    12.1002737727
  - # 17
    frequency:    13.6303973801
  - # 18
    frequency:    13.6591702316

- q-position: [    0.1328125,    0.0078125,    0.0000000 ]
  weight: 10   
  band:
  - # 1
    frequency:     2.2239205822
  - # 2
    frequency:     2.2239931345
  - # 3
    frequency:     2.2702450146
  - # 4
    frequency:     2.2773679534
  - # 5
    frequency:     2.7228315038
  - # 6
    frequency:     2.8121774472
  - # 7
    frequency:     8.4062134145
  - # 8
    frequency:     8.4084341879
  - # 9
    frequency:     8.4126488177
  - # 10
    frequency:     8.4134755679
  - # 11
    frequency:    11.0988205036
  - # 12
    frequency:    11.1002557283
  - # 13
    frequency:    11.1072639594
  - # 14
    frequency:    11.1098964228
  - # 15
    frequency:    12.0374847551
  - # 16
    frequency:    12.0997000279
  - # 17
    frequency:    13.5733048286
  - # 18
    frequency:    13.6017633030

- q-position: [    0.1484375,    0.0078125,    0.0000000 ]
  weight: 10   
  band:
  - # 1
    frequency:     2.4705317280
  - # 2
    frequency:     2.4706466137
  - # 3
    frequency:     2.5115127166
  - # 4
    frequency:     2.5178843650
  - # 5
    frequency:     3.0247498972
  - # 6
    frequency:     3.1033509284
  - # 7
    frequency:     8.4062149569
  - # 8
    frequency:     8.4084326460
  - # 9
    frequency:     8.4126530794
  - # 10
    frequency:     8.4134713062
  - # 11
    frequency:    11.0467243001
  - # 12
    frequency:    11.0481829612
  - # 13
    frequency:    11.0550270831
  - # 14
    frequency:    11.0576599223
  - # 15
    frequency:    12.0381248604
  - # 16
    frequency:    12.0990631632
  - # 17
    frequency:    13.5097114977
  - # 18
    frequency:    13.5378180926

- q-position: [    0.1640625,    0.0078125,    0.0000000 ]
  weight: 10   
  band:
  - # 1
    frequency:     2.7148493569
  - # 2
    frequency:     2.7150018292
  - # 3
    frequency:     2.7513945856
  - # 4
    frequency:     2.7571417642
  - # 5
    frequency:     3.3238583968
  - # 6
    frequency:     3.3934698162
  - # 7
    frequency:     8.4062166123
  - # 8
    frequency:     8.4084309912
  - # 9
    frequency:     8.4126576964
  - # 10
    frequency:     8.4134666892
  - # 11
    frequency:    10.9894323827
  - # 12
    frequency:    10.9909173938
  - # 13
    frequency:    10.9975798051
  - # 14
    frequency:    11.0002134283
  - # 15
    frequency:    12.0388260447
  - # 16
    frequency:    12.0983654525
  - # 17
    frequency:    13.4397776914
  - # 18
    frequency:    13.4674951660

- q-position: [    0.1796875,    0.0078125,    0.0000000 ]
  weight: 10   
  band:
  - # 1
    frequency:     2.9565703603
  - # 2
    frequency:     2.9567562600
  - # 3
    frequency:     2.9893648653
  - # 4
    frequency:     2.9945838897
  - # 5
    frequency:     3.6197852290
  - # 6
    frequency:     3.6817407337
  - # 7
    frequency:     8.4062183652
  - # 8
    frequency:     8.4084292389
  - # 9
    frequency:     8.4126626357
  - # 10
    frequency:     8.4134617499
  - # 11
    frequency:    10.9270981269
  - # 12
    frequency:    10.9286125301
  - # 13
    frequency:    10.9350757147
  - # 14
    frequency:    10.9377106570
  - # 15
    frequency:    12.0395857070
  - # 16
    frequency:    12.0976094634
  - # 17
    frequency:    13.3636912769
  - # 18
    frequency:    13.3909827161

- q-position: [    0.1953125,    0.0078125,    0.0000000 ]
  weight: 10   
  band:
  - # 1
    frequency:     3.1953764853
  - # 2
    frequency:     3.1955919921
  - # 3
    frequency:     3.2249503724
  - # 4
    frequency:     3.2297159046
  - # 5
    frequency:     3.9121401198
  - # 6
    frequency:     3.9674777174
  - # 7
    frequency:     8.4062201991
  - # 8
    frequency:     8.4084274056
  - # 9
    frequency:     8.4126678610
  - # 10
    frequency:     8.4134565246
  - # 11
    frequency:    10.8599008795
  - # 12
    frequency:    10.8614478635
  - # 13
    frequency:    10.8676944254
  - # 14
    frequency:    10.8703313684
  - # 15
    frequency:    12.0404009292
  - # 16
    frequency:    12.0967980782
  - # 17
    frequency:    13.2816719202
  - # 18
    frequency:    13.3085008157

- q-position: [    0.2109375,    0.0078125,    0.0000000 ]
  weight: 10   
  band:
  - # 1
    frequency:     3.4309283895
  - # 2
    frequency:     3.4311698353
  - # 3
    frequency:     3.4577008692
  - # 4
    frequency:     3.4620718057
  - # 5
    frequency:     4.2005069643
  - # 6
    frequency:     4.2500518481
  - # 7
    frequency:     8.4062220967
  - # 8
    frequency:     8.4084255086
  - # 9
    frequency:     8.4126733324
  - # 10
    frequency:     8.4134510531
  - # 11
    frequency:    10.7880502965
  - # 12
    frequency:    10.7896332151
  - # 13
    frequency:    10.7956459262
  - # 14
    frequency:    10.7982857186
  - # 15
    frequency:    12.0412684476
  - # 16
    frequency:    12.0959345234
  - # 17
    frequency:    13.1939763911
  - # 18
    frequency:    13.2203067437

- q-position: [    0.2265625,    0.0078125,    0.0000000 ]
  weight: 10   
  band:
  - # 1
    frequency:     3.6628592004
  - # 2
    frequency:     3.6631229303
  - # 3
    frequency:     3.6871682105
  - # 4
    frequency:     3.6911917094
  - # 5
    frequency:     4.4844359153
  - # 6
    frequency:     4.5288567560
  - # 7
    frequency:     8.4062240400
  - # 8
    frequency:     8.4084235659
  - # 9
    frequency:     8.4126790065
  - # 10
    frequency:     8.4134453788
  - # 11
    frequency:    10.7117917836
  - # 12
    frequency:    10.7134141753
  - # 13
    frequency:    10.7191760398
  - # 14
    frequency:    10.7218197204
  - # 15
    frequency:    12.0421846160
  - # 16
    frequency:    12.0950224066
  - # 17
    frequency:    13.1009052145
  - # 18
    frequency:    13.1267016666

- q-position: [    0.2421875,    0.0078125,    0.0000000 ]
  weight: 10   
  band:
  - # 1
    frequency:     3.8907670274
  - # 2
    frequency:     3.8910492919
  - # 3
    frequency:     3.9128897613
  - # 4
    frequency:     3.9166040658
  - # 5
    frequency:     4.7634341981
  - # 6
    frequency:     4.8032824747
  - # 7
    frequency:     8.4062260106
  - # 8
    frequency:     8.4084215959
  - # 9
    frequency:     8.4126848366
  - # 10
    frequency:     8.4134395485
  - # 11
    frequency:    10.6314133303
  - # 12
    frequency:    10.6330789370
  - # 13
    frequency:    10.6385732789
  - # 14
    frequency:    10.6412221008
  - # 15
    frequency:    12.0431453565
  - # 16
    frequency:    12.0940657656
  - # 17
    frequency:    13.0028110233
  - # 18
    frequency:    13.0280390291

- q-position: [    0.2578125,    0.0078125,    0.0000000 ]
  weight: 10   
  band:
  - # 1
    frequency:     4.1142059200
  - # 2
    frequency:     4.1145027857
  - # 3
    frequency:     4.1343734364
  - # 4
    frequency:     4.1378099023
  - # 5
    frequency:     5.0369550260
  - # 6
    frequency:     5.0726932315
  - # 7
    frequency:     8.4062279894
  - # 8
    frequency:     8.4084196176
  - # 9
    frequency:     8.4126907726
  - # 10
    frequency:     8.4134336122
  - # 11
    frequency:    10.5472541024
  - # 12
    frequency:    10.5489668866
  - # 13
    frequency:    10.5541774677
  - # 14
    frequency:    10.5568329233
  - # 15
    frequency:    12.0441460959
  - # 16
    frequency:    12.0930691331
  - # 17
    frequency:    12.9001090546
  - # 18
    frequency:    12.9247351040

- q-position: [    0.2734375,    0.0078125,    0.0000000 ]
  weight: 10   
  band:
  - # 1
    frequency:     4.3326747351
  - # 2
    frequency:     4.3329820094
  - # 3
    frequency:     4.3510826175
  - # 4
    frequency:     4.3542672028
  - # 5
    frequency:     5.3043839635
  - # 6
    frequency:     5.3364063413
  - # 7
    frequency:     8.4062299575
  - # 8
    frequency:     8.4084176501
  - # 9
    frequency:     8.4126967609
  - # 10
    frequency:     8.4134276234
  - # 11
    frequency:    10.4597152466
  - # 12
    frequency:    10.4614794039
  - # 13
    frequency:    10.4663905840
  - # 14
    frequency:    10.4690544291
  - # 15
    frequency:    12.0451816810
  - # 16
    frequency:    12.0920376210
  - # 17
    frequency:    12.7932903437
  - # 18
    frequency:    12.8172822571

- q-position: [    0.2890625,    0.0078125,    0.0000000 ]
  weight: 10   
  band:
  - # 1
    frequency:     4.5456033212
  - # 2
    frequency:     4.5459164878
  - # 3
    frequency:     4.5624196456
  - # 4
    frequency:     4.5653740330
  - # 5
    frequency:     5.5650220105
  - # 6
    frequency:     5.5936701845
  - # 7
    frequency:     8.4062318958
  - # 8
    frequency:     8.4084157123
  - # 9
    frequency:     8.4127027452
  - # 10
    frequency:     8.4134216386
  - # 11
    frequency:    10.3692734541
  - # 12
    frequency:    10.3710934160
  - # 13
    frequency:    10.3756903706
  - # 14
    frequency:    10.3783646456
  - # 15
    frequency:    12.0462462675
  - # 16
    frequency:    12.0909770311
  - # 17
    frequency:    12.6829382747
  - # 18
    frequency:    12.7062655964

- q-position: [    0.3046875,    0.0078125,    0.0000000 ]
  weight: 10   
  band:
  - # 1
    frequency:     4.7523353602
  - # 2
    frequency:     4.7526495275
  - # 3
    frequency:     4.7677068018
  - # 4
    frequency:     4.7704492710
  - # 5
    frequency:     5.8180646075
  - # 6
    frequency:     5.8436396787
  - # 7
    frequency:     8.4062337854
  - # 8
    frequency:     8.4084138231
  - # 9
    frequency:     8.4127086660
  - # 10
    frequency:     8.4134157170
  - # 11
    frequency:    10.2764979080
  - # 12
    frequency:    10.2783783293
  - # 13
    frequency:    10.2826473452
  - # 14
    frequency:    10.2853343887
  - # 15
    frequency:    12.0473331737
  - # 16
    frequency:    12.0898940011
  - # 17
    frequency:    12.5697492474
  - # 18
    frequency:    12.5923837755

- q-position: [    0.3203125,    0.0078125,    0.0000000 ]
  weight: 10   
  band:
  - # 1
    frequency:     4.9521071936
  - # 2
    frequency:     4.9524170623
  - # 3
    frequency:     4.9661638401
  - # 4
    frequency:     4.9687099740
  - # 5
    frequency:     6.0625757465
  - # 6
    frequency:     6.0853479313
  - # 7
    frequency:     8.4062356079
  - # 8
    frequency:     8.4084120011
  - # 9
    frequency:     8.4127144616
  - # 10
    frequency:     8.4134099205
  - # 11
    frequency:    10.1820712685
  - # 12
    frequency:    10.1840169861
  - # 13
    frequency:    10.1879458637
  - # 14
    frequency:    10.1906483119
  - # 15
    frequency:    12.0484346878
  - # 16
    frequency:    12.0887961929
  - # 17
    frequency:    12.4545582424
  - # 18
    frequency:    12.4764747503

- q-position: [    0.3359375,    0.0078125,    0.0000000 ]
  weight: 10   
  band:
  - # 1
    frequency:     5.1440220760
  - # 2
    frequency:     5.1443219391
  - # 3
    frequency:     5.1568813470
  - # 4
    frequency:     5.1592446386
  - # 5
    frequency:     6.2974565193
  - # 6
    frequency:     6.3176730839
  - # 7
    frequency:     8.4062373453
  - # 8
    frequency:     8.4084102641
  - # 9
    frequency:     8.4127200685
  - # 10
    frequency:     8.4134043125
  - # 11
    frequency:    10.0868152349
  - # 12
    frequency:    10.0888311823
  - # 13
    frequency:    10.0924097822
  - # 14
    frequency:    10.0951305437
  - # 15
    frequency:    12.0495418172
  - # 16
    frequency:    12.0876925313
  - # 17
    frequency:    12.3383699269
  - # 18
    frequency:    12.3595471604

- q-position: [    0.3515625,    0.0078125,    0.0000000 ]
  weight: 10   
  band:
  - # 1
    frequency:     5.3270197073
  - # 2
    frequency:     5.3273035024
  - # 3
    frequency:     5.3387896739
  - # 4
    frequency:     5.3409820888
  - # 5
    frequency:     6.5214079423
  - # 6
    frequency:     6.5392999720
  - # 7
    frequency:     8.4062389803
  - # 8
    frequency:     8.4084086292
  - # 9
    frequency:     8.4127254219
  - # 10
    frequency:     8.4133989578
  - # 11
    frequency:     9.9917208230
  - # 12
    frequency:     9.9938118733
  - # 13
    frequency:     9.9970328557
  - # 14
    frequency:     9.9997750462
  - # 15
    frequency:    12.0506439607
  - # 16
    frequency:    12.0865934597
  - # 17
    frequency:    12.2223954453
  - # 18
    frequency:    12.2428175454

- q-position: [    0.3671875,    0.0078125,    0.0000000 ]
  weight: 10   
  band:
  - # 1
    frequency:     5.4998418673
  - # 2
    frequency:     5.5001033154
  - # 3
    frequency:     5.5106241961
  - # 4
    frequency:     5.5126567420
  - # 5
    frequency:     6.7328890982
  - # 6
    frequency:     6.7486774789
  - # 7
    frequency:     8.4062404969
  - # 8
    frequency:     8.4084071128
  - # 9
    frequency:     8.4127304566
  - # 10
    frequency:     8.4133939214
  - # 11
    frequency:     9.8979825251
  - # 12
    frequency:     9.9001532261
  - # 13
    frequency:     9.9030130410
  - # 14
    frequency:     9.9057798554
  - # 15
    frequency:    12.0517284351
  - # 16
    frequency:    12.0855101905
  - # 17
    frequency:    12.1080939687
  - # 18
    frequency:    12.1277533385

- q-position: [    0.3828125,    0.0078125,    0.0000000 ]
  weight: 10   
  band:
  - # 1
    frequency:     5.6609969466
  - # 2
    frequency:     5.6612298235
  - # 3
    frequency:     5.6708896440
  - # 4
    frequency:     5.6727729952
  - # 5
    frequency:     6.9300740516
  - # 6
    frequency:     6.9439749021
  - # 7
    frequency:     8.4062418798
  - # 8
    frequency:     8.4084057299
  - # 9
    frequency:     8.4127351085
  - # 10
    frequency:     8.4133892677
  - # 11
    frequency:     9.8070335571
  - # 12
    frequency:     9.8092877120
  - # 13
    frequency:     9.8117879003
  - # 14
    frequency:     9.8145823965
  - # 15
    frequency:    11.9972140464
  - # 16
    frequency:    12.0161067109
  - # 17
    frequency:    12.0527808481
  - # 18
    frequency:    12.0844649579

- q-position: [    0.3984375,    0.0078125,    0.0000000 ]
  weight: 10   
  band:
  - # 1
    frequency:     5.8087296961
  - # 2
    frequency:     5.8089282941
  - # 3
    frequency:     5.8178297829
  - # 4
    frequency:     5.8195749976
  - # 5
    frequency:     7.1108153108
  - # 6
    frequency:     7.1230449569
  - # 7
    frequency:     8.4062431152
  - # 8
    frequency:     8.4084044945
  - # 9
    frequency:     8.4127393152
  - # 10
    frequency:     8.4133850589
  - # 11
    frequency:     9.7205758854
  - # 12
    frequency:     9.7229159248
  - # 13
    frequency:     9.7250647750
  - # 14
    frequency:     9.7278895383
  - # 15
    frequency:    11.8918328582
  - # 16
    frequency:    11.9099769914
  - # 17
    frequency:    12.0537819168
  - # 18
    frequency:    12.0834653789

- q-position: [    0.4140625,    0.0078125,    0.0000000 ]
  weight: 10   
  band:
  - # 1
    frequency:     5.9410080688
  - # 2
    frequency:     5.9411679026
  - # 3
    frequency:     5.9494142521
  - # 4
    frequency:     5.9510335987
  - # 5
    frequency:     7.2726283708
  - # 6
    frequency:     7.2834077725
  - # 7
    frequency:     8.4062441907
  - # 8
    frequency:     8.4084034188
  - # 9
    frequency:     8.4127430178
  - # 10
    frequency:     8.4133813538
  - # 11
    frequency:     9.6405931979
  - # 12
    frequency:     9.6430193046
  - # 13
    frequency:     9.6448338493
  - # 14
    frequency:     9.6476905208
  - # 15
    frequency:    11.7943669414
  - # 16
    frequency:    11.8117935321
  - # 17
    frequency:    12.0547108493
  - # 18
    frequency:    12.0825384188

- q-position: [    0.4296875,    0.0078125,    0.0000000 ]
  weight: 10   
  band:
  - # 1
    frequency:     6.0555462399
  - # 2
    frequency:     6.0556650146
  - # 3
    frequency:     6.0633615495
  - # 4
    frequency:     6.0648694057
  - # 5
    frequency:     7.4127206029
  - # 6
    frequency:     7.4222789470
  - # 7
    frequency:     8.4062450954
  - # 8
    frequency:     8.4084025139
  - # 9
    frequency:     8.4127461626
  - # 10
    frequency:     8.4133782065
  - # 11
    frequency:     9.5693278111
  - # 12
    frequency:     9.5718368139
  - # 13
    frequency:     9.5733450187
  - # 14
    frequency:     9.5762337032
  - # 15
    frequency:    11.7075458931
  - # 16
    frequency:    11.7243093734
  - # 17
    frequency:    12.0555423257
  - # 18
    frequency:    12.0817086971

- q-position: [    0.4453125,    0.0078125,    0.0000000 ]
  weight: 10   
  band:
  - # 1
    frequency:     6.1498891220
  - # 2
    frequency:     6.1499678869
  - # 3
    frequency:     6.1572233068
  - # 4
    frequency:     6.1586370126
  - # 5
    frequency:     7.5280952085
  - # 6
    frequency:     7.5366722100
  - # 7
    frequency:     8.4062458202
  - # 8
    frequency:     8.4084017888
  - # 9
    frequency:     8.4127487022
  - # 10
    frequency:     8.4133756645
  - # 11
    frequency:     9.5091963206
  - # 12
    frequency:     9.5117804987
  - # 13
    frequency:     9.5130232676
  - # 14
    frequency:     9.5159419041
  - # 15
    frequency:    11.6343079336
  - # 16
    frequency:    11.6504912920
  - # 17
    frequency:    12.0562479846
  - # 18
    frequency:    12.0810044703

- q-position: [    0.4609375,    0.0078125,    0.0000000 ]
  weight: 10   
  band:
  - # 1
    frequency:     6.2215823176
  - # 2
    frequency:     6.2216266059
  - # 3
    frequency:     6.2285535939
  - # 4
    frequency:     6.2298940344
  - # 5
    frequency:     7.6157590706
  - # 6
    frequency:     7.6236055254
  - # 7
    frequency:     8.4062463577
  - # 8
    frequency:     8.4084012511
  - # 9
    frequency:     8.4127505972
  - # 10
    frequency:     8.4133737673
  - # 11
    frequency:     9.4626201899
  - # 12
    frequency:     9.4652663168
  - # 13
    frequency:     9.4662986450
  - # 14
    frequency:     9.4692425191
  - # 15
    frequency:    11.5775935756
  - # 16
    frequency:    11.5933124774
  - # 17
    frequency:    12.0567980100
  - # 18
    frequency:    12.0804555156

- q-position: [    0.4765625,    0.0078125,    0.0000000 ]
  weight: 10   
  band:
  - # 1
    frequency:     6.2684326120
  - # 2
    frequency:     6.2684534298
  - # 3
    frequency:     6.2751682835
  - # 4
    frequency:     6.2764599216
  - # 5
    frequency:     7.6730403380
  - # 6
    frequency:     7.6804167654
  - # 7
    frequency:     8.4062467023
  - # 8
    frequency:     8.4084009062
  - # 9
    frequency:     8.4127518179
  - # 10
    frequency:     8.4133725451
  - # 11
    frequency:     9.4317661524
  - # 12
    frequency:     9.4344552915
  - # 13
    frequency:     9.4353456883
  - # 14
    frequency:     9.4383073372
  - # 15
    frequency:    11.5400308959
  - # 16
    frequency:    11.5554338829
  - # 17
    frequency:    12.0571644194
  - # 18
    frequency:    12.0800897955

- q-position: [    0.4921875,    0.0078125,    0.0000000 ]
  weight: 10   
  band:
  - # 1
    frequency:     6.2888239026
  - # 2
    frequency:     6.2888366399
  - # 3
    frequency:     6.2954585553
  - # 4
    frequency:     6.2967287021
  - # 5
    frequency:     7.6979715829
  - # 6
    frequency:     7.7051453083
  - # 7
    frequency:     8.4062468507
  - # 8
    frequency:     8.4084007577
  - # 9
    frequency:     8.4127523446
  - # 10
    frequency:     8.4133720177
  - # 11
    frequency:     9.4182323137
  - # 12
    frequency:     9.4209408511
  - # 13
    frequency:     9.4217683190
  - # 14
    frequency:     9.4247380438
  - # 15
    frequency:    11.5235563729
  - # 16
    frequency:    11.5388185261
  - # 17
    frequency:    12.0573257328
  - # 18
    frequency:    12.0799287794

- q-position: [    0.0234375,    0.0234375,    0.0000000 ]
  weight: 6    
  band:
  - # 1
    frequency:     0.6657079481
  - # 2
    frequency:     0.6662289949
  - # 3
    frequency:     0.8158301919
  - # 4
    frequency:     0.8170992862
  - # 5
    frequency:     0.8374585171
  - # 6
    frequency:     1.1000298741
  - # 7
    frequency:     8.4062071489
  - # 8
    frequency:     8.4084404514
  - # 9
    frequency:     8.4126318817
  - # 10
    frequency:     8.4134925037
  - # 11
    frequency:    11.2991251309
  - # 12
    frequency:    11.3004744871
  - # 13
    frequency:    11.3081043541
  - # 14
    frequency:    11.3107380895
  - # 15
    frequency:    12.0350007998
  - # 16
    frequency:    12.1021707858
  - # 17
    frequency:    13.8178286326
  - # 18
    frequency:    13.8476239578

- q-position: [    0.0390625,    0.0234375,    0.0000000 ]
  weight: 12   
  band:
  - # 1
    frequency:     0.8965731620
  - # 2
    frequency:     0.8969130358
  - # 3
    frequency:     1.0134077304
  - # 4
    frequency:     1.0298446859
  - # 5
    frequency:     1.0982251856
  - # 6
    frequency:     1.3215846369
  - # 7
    frequency:     8.4062076663
  - # 8
    frequency:     8.4084399341
  - # 9
    frequency:     8.4126332585
  - # 10
    frequency:     8.4134911269
  - # 11
    frequency:    11.2832123556
  - # 12
    frequency:    11.2845683038
  - # 13
    frequency:    11.2921493037
  - # 14
    frequency:    11.2947827915
  - # 15
    frequency:    12.0351994782
  - # 16
    frequency:    12.1019731990
  - # 17
    frequency:    13.7984022052
  - # 18
    frequency:    13.8280922115

- q-position: [    0.0546875,    0.0234375,    0.0000000 ]
  weight: 12   
  band:
  - # 1
    frequency:     1.1374571846
  - # 2
    frequency:     1.1376750773
  - # 3
    frequency:     1.2309147284
  - # 4
    frequency:     1.2444269832
  - # 5
    frequency:     1.3929727758
  - # 6
    frequency:     1.5733490015
  - # 7
    frequency:     8.4062083649
  - # 8
    frequency:     8.4084392358
  - # 9
    frequency:     8.4126351234
  - # 10
    frequency:     8.4134892620
  - # 11
    frequency:    11.2615594001
  - # 12
    frequency:    11.2629243788
  - # 13
    frequency:    11.2704387450
  - # 14
    frequency:    11.2730719346
  - # 15
    frequency:    12.0354694486
  - # 16
    frequency:    12.1017047020
  - # 17
    frequency:    13.7719683253
  - # 18
    frequency:    13.8015147848

- q-position: [    0.0703125,    0.0234375,    0.0000000 ]
  weight: 12   
  band:
  - # 1
    frequency:     1.3825088802
  - # 2
    frequency:     1.3826368414
  - # 3
    frequency:     1.4595866129
  - # 4
    frequency:     1.4709405213
  - # 5
    frequency:     1.6928690037
  - # 6
    frequency:     1.8422840325
  - # 7
    frequency:     8.4062092383