phonopy:
  version: 1.11.12
  configuration:
    dim: "1 1 1"
    mesh_numbers: "64 64 1"
    force_constants: "read"
    tprop: ".true."

supercell_matrix:
- [   1,   0,   0 ]
- [   0,   1,   0 ]
- [   0,   0,   1 ]

primitive_cell:
  lattice:
  - [     3.185317194465613,     0.000000000000000,     0.000000000000000 ] # a
  - [    -1.592658597232806,     2.758564910718937,     0.000000000000000 ] # b
  - [     0.000000000000000,     0.000000000000000,    14.860035077054938 ] # c
  points:
  - symbol: Mo # 1
    coordinates: [  0.666666999999997,  0.333333000000003,  0.250000000000000 ]
    mass: 95.960000
  - symbol: Mo # 2
    coordinates: [  0.333333000000003,  0.666666999999997,  0.750000000000000 ]
    mass: 95.960000
  - symbol: S  # 3
    coordinates: [  0.333333000000003,  0.666666999999997,  0.144902649198713 ]
    mass: 32.065000
  - symbol: S  # 4
    coordinates: [  0.666666999999997,  0.333333000000003,  0.644902649198713 ]
    mass: 32.065000
  - symbol: S  # 5
    coordinates: [  0.333333000000003,  0.666666999999997,  0.355097350801287 ]
    mass: 32.065000
  - symbol: S  # 6
    coordinates: [  0.666666999999997,  0.333333000000003,  0.855097350801287 ]
    mass: 32.065000
  reciprocal_lattice: # without 2pi
  - [     0.313940477179939,     0.181253664924524,     0.000000000000000 ] # a*
  - [     0.000000000000000,     0.362507329849048,     0.000000000000000 ] # b*
  - [     0.000000000000000,     0.000000000000000,     0.067294592160424 ] # c*

unit_cell:
  lattice:
  - [     3.185317194465613,    -0.000000000000000,     0.000000000000000 ] # a
  - [    -1.592658597232806,     2.758564910718937,    -0.000000000000000 ] # b
  - [    -0.000000000000000,     0.000000000000000,    14.860035077054938 ] # c
  points:
  - symbol: Mo # 1
    coordinates: [  0.666666999999997,  0.333333000000003,  0.250000000000000 ]
    mass: 95.960000
    reduced_to: 1
  - symbol: Mo # 2
    coordinates: [  0.333333000000003,  0.666666999999997,  0.750000000000000 ]
    mass: 95.960000
    reduced_to: 2
  - symbol: S  # 3
    coordinates: [  0.333333000000003,  0.666666999999997,  0.144902649198713 ]
    mass: 32.065000
    reduced_to: 3
  - symbol: S  # 4
    coordinates: [  0.666666999999997,  0.333333000000003,  0.644902649198713 ]
    mass: 32.065000
    reduced_to: 4
  - symbol: S  # 5
    coordinates: [  0.333333000000003,  0.666666999999997,  0.355097350801287 ]
    mass: 32.065000
    reduced_to: 5
  - symbol: S  # 6
    coordinates: [  0.666666999999997,  0.333333000000003,  0.855097350801287 ]
    mass: 32.065000
    reduced_to: 6

supercell:
  lattice:
  - [     3.185317194465613,     0.000000000000000,     0.000000000000000 ] # a
  - [    -1.592658597232806,     2.758564910718937,     0.000000000000000 ] # b
  - [     0.000000000000000,     0.000000000000000,    14.860035077054938 ] # c
  points:
  - symbol: Mo # 1
    coordinates: [  0.666666999999997,  0.333333000000003,  0.250000000000000 ]
    mass: 95.960000
    reduced_to: 1
  - symbol: Mo # 2
    coordinates: [  0.333333000000003,  0.666666999999997,  0.750000000000000 ]
    mass: 95.960000
    reduced_to: 2
  - symbol: S  # 3
    coordinates: [  0.333333000000003,  0.666666999999997,  0.144902649198713 ]
    mass: 32.065000
    reduced_to: 3
  - symbol: S  # 4
    coordinates: [  0.666666999999997,  0.333333000000003,  0.644902649198713 ]
    mass: 32.065000
    reduced_to: 4
  - symbol: S  # 5
    coordinates: [  0.333333000000003,  0.666666999999997,  0.355097350801287 ]
    mass: 32.065000
    reduced_to: 5
  - symbol: S  # 6
    coordinates: [  0.666666999999997,  0.333333000000003,  0.855097350801287 ]
    mass: 32.065000
    reduced_to: 6
