<?xml version="1.0" encoding="ISO-8859-1"?>
<modeling>
 <generator>
  <i name="program" type="string">vasp </i>
  <i name="version" type="string">5.3.5  </i>
  <i name="subversion" type="string">31Mar14 (build Mar 18 2017 11:34:20) complex                          parallel </i>
  <i name="platform" type="string">LinuxIFC </i>
  <i name="date" type="string">2018 05 01 </i>
  <i name="time" type="string">19:38:45 </i>
 </generator>
 <incar>
  <i type="string" name="SYSTEM"> MoS2</i>
  <i type="string" name="PREC">accurate</i>
  <i type="string" name="ALGO"> Fast</i>
  <i type="logical" name="ADDGRID"> T  </i>
  <i type="int" name="IBRION">     8</i>
  <i name="EDIFF">      0.00001000</i>
  <i type="int" name="NSW">     1</i>
  <i type="int" name="ISIF">     2</i>
  <i type="int" name="ISYM">     0</i>
  <i name="ENCUT">    600.00000000</i>
  <i name="POTIM">      0.50000000</i>
  <i type="logical" name="LREAL"> F  </i>
  <i type="int" name="ISMEAR">     0</i>
  <i name="SIGMA">      0.05000000</i>
  <i type="int" name="NWRITE">     3</i>
  <i type="logical" name="LWAVE"> F  </i>
  <i type="logical" name="LCHARG"> F  </i>
  <i type="logical" name="LEPSILON"> T  </i>
 </incar>
 <kpoints>
  <generation param="Gamma">
   <v type="int" name="divisions">      12       12       12 </v>
   <v name="usershift">      0.00000000       0.00000000       0.00000000 </v>
   <v name="genvec1">      0.08333333       0.00000000       0.00000000 </v>
   <v name="genvec2">      0.00000000       0.08333333       0.00000000 </v>
   <v name="genvec3">      0.00000000       0.00000000       0.08333333 </v>
   <v name="shift">      0.00000000       0.00000000       0.00000000 </v>
  </generation>
  <varray name="kpointlist" >
   <v>       0.00000000       0.00000000       0.00000000 </v>
   <v>       0.08333333       0.00000000       0.00000000 </v>
   <v>       0.16666667       0.00000000       0.00000000 </v>
   <v>       0.25000000       0.00000000       0.00000000 </v>
   <v>       0.33333333       0.00000000       0.00000000 </v>
   <v>       0.41666667       0.00000000       0.00000000 </v>
   <v>       0.50000000       0.00000000       0.00000000 </v>
   <v>       0.00000000       0.08333333       0.00000000 </v>
   <v>       0.08333333       0.08333333       0.00000000 </v>
   <v>       0.16666667       0.08333333       0.00000000 </v>
   <v>       0.25000000       0.08333333       0.00000000 </v>
   <v>       0.33333333       0.08333333       0.00000000 </v>
   <v>       0.41666667       0.08333333       0.00000000 </v>
   <v>       0.50000000       0.08333333       0.00000000 </v>
   <v>      -0.41666667       0.08333333       0.00000000 </v>
   <v>      -0.33333333       0.08333333       0.00000000 </v>
   <v>      -0.25000000       0.08333333       0.00000000 </v>
   <v>      -0.16666667       0.08333333       0.00000000 </v>
   <v>      -0.08333333       0.08333333       0.00000000 </v>
   <v>       0.00000000       0.16666667       0.00000000 </v>
   <v>       0.08333333       0.16666667       0.00000000 </v>
   <v>       0.16666667       0.16666667       0.00000000 </v>
   <v>       0.25000000       0.16666667       0.00000000 </v>
   <v>       0.33333333       0.16666667       0.00000000 </v>
   <v>       0.41666667       0.16666667       0.00000000 </v>
   <v>       0.50000000       0.16666667       0.00000000 </v>
   <v>      -0.41666667       0.16666667       0.00000000 </v>
   <v>      -0.33333333       0.16666667       0.00000000 </v>
   <v>      -0.25000000       0.16666667       0.00000000 </v>
   <v>      -0.16666667       0.16666667       0.00000000 </v>
   <v>      -0.08333333       0.16666667       0.00000000 </v>
   <v>       0.00000000       0.25000000       0.00000000 </v>
   <v>       0.08333333       0.25000000       0.00000000 </v>
   <v>       0.16666667       0.25000000       0.00000000 </v>
   <v>       0.25000000       0.25000000       0.00000000 </v>
   <v>       0.33333333       0.25000000       0.00000000 </v>
   <v>       0.41666667       0.25000000       0.00000000 </v>
   <v>       0.50000000       0.25000000       0.00000000 </v>
   <v>      -0.41666667       0.25000000       0.00000000 </v>
   <v>      -0.33333333       0.25000000       0.00000000 </v>
   <v>      -0.25000000       0.25000000       0.00000000 </v>
   <v>      -0.16666667       0.25000000       0.00000000 </v>
   <v>      -0.08333333       0.25000000       0.00000000 </v>
   <v>       0.00000000       0.33333333       0.00000000 </v>
   <v>       0.08333333       0.33333333       0.00000000 </v>
   <v>       0.16666667       0.33333333       0.00000000 </v>
   <v>       0.25000000       0.33333333       0.00000000 </v>
   <v>       0.33333333       0.33333333       0.00000000 </v>
   <v>       0.41666667       0.33333333       0.00000000 </v>
   <v>       0.50000000       0.33333333       0.00000000 </v>
   <v>      -0.41666667       0.33333333       0.00000000 </v>
   <v>      -0.33333333       0.33333333       0.00000000 </v>
   <v>      -0.25000000       0.33333333       0.00000000 </v>
   <v>      -0.16666667       0.33333333       0.00000000 </v>
   <v>      -0.08333333       0.33333333       0.00000000 </v>
   <v>       0.00000000       0.41666667       0.00000000 </v>
   <v>       0.08333333       0.41666667       0.00000000 </v>
   <v>       0.16666667       0.41666667       0.00000000 </v>
   <v>       0.25000000       0.41666667       0.00000000 </v>
   <v>       0.33333333       0.41666667       0.00000000 </v>
   <v>       0.41666667       0.41666667       0.00000000 </v>
   <v>       0.50000000       0.41666667       0.00000000 </v>
   <v>      -0.41666667       0.41666667       0.00000000 </v>
   <v>      -0.33333333       0.41666667       0.00000000 </v>
   <v>      -0.25000000       0.41666667       0.00000000 </v>
   <v>      -0.16666667       0.41666667       0.00000000 </v>
   <v>      -0.08333333       0.41666667       0.00000000 </v>
   <v>       0.00000000       0.50000000       0.00000000 </v>
   <v>       0.08333333       0.50000000       0.00000000 </v>
   <v>       0.16666667       0.50000000       0.00000000 </v>
   <v>       0.25000000       0.50000000       0.00000000 </v>
   <v>       0.33333333       0.50000000       0.00000000 </v>
   <v>       0.41666667       0.50000000       0.00000000 </v>
   <v>       0.50000000       0.50000000       0.00000000 </v>
   <v>       0.00000000       0.00000000       0.08333333 </v>
   <v>       0.08333333       0.00000000       0.08333333 </v>
   <v>       0.16666667       0.00000000       0.08333333 </v>
   <v>       0.25000000       0.00000000       0.08333333 </v>
   <v>       0.33333333       0.00000000       0.08333333 </v>
   <v>       0.41666667       0.00000000       0.08333333 </v>
   <v>       0.50000000       0.00000000       0.08333333 </v>
   <v>      -0.41666667       0.00000000       0.08333333 </v>
   <v>      -0.33333333       0.00000000       0.08333333 </v>
   <v>      -0.25000000       0.00000000       0.08333333 </v>
   <v>      -0.16666667       0.00000000       0.08333333 </v>
   <v>      -0.08333333       0.00000000       0.08333333 </v>
   <v>       0.00000000       0.08333333       0.08333333 </v>
   <v>       0.08333333       0.08333333       0.08333333 </v>
   <v>       0.16666667       0.08333333       0.08333333 </v>
   <v>       0.25000000       0.08333333       0.08333333 </v>
   <v>       0.33333333       0.08333333       0.08333333 </v>
   <v>       0.41666667       0.08333333       0.08333333 </v>
   <v>       0.50000000       0.08333333       0.08333333 </v>
   <v>      -0.41666667       0.08333333       0.08333333 </v>
   <v>      -0.33333333       0.08333333       0.08333333 </v>
   <v>      -0.25000000       0.08333333       0.08333333 </v>
   <v>      -0.16666667       0.08333333       0.08333333 </v>
   <v>      -0.08333333       0.08333333       0.08333333 </v>
   <v>       0.00000000       0.16666667       0.08333333 </v>
   <v>       0.08333333       0.16666667       0.08333333 </v>
   <v>       0.16666667       0.16666667       0.08333333 </v>
   <v>       0.25000000       0.16666667       0.08333333 </v>
   <v>       0.33333333       0.16666667       0.08333333 </v>
   <v>       0.41666667       0.16666667       0.08333333 </v>
   <v>       0.50000000       0.16666667       0.08333333 </v>
   <v>      -0.41666667       0.16666667       0.08333333 </v>
   <v>      -0.33333333       0.16666667       0.08333333 </v>
   <v>      -0.25000000       0.16666667       0.08333333 </v>
   <v>      -0.16666667       0.16666667       0.08333333 </v>
   <v>      -0.08333333       0.16666667       0.08333333 </v>
   <v>       0.00000000       0.25000000       0.08333333 </v>
   <v>       0.08333333       0.25000000       0.08333333 </v>
   <v>       0.16666667       0.25000000       0.08333333 </v>
   <v>       0.25000000       0.25000000       0.08333333 </v>
   <v>       0.33333333       0.25000000       0.08333333 </v>
   <v>       0.41666667       0.25000000       0.08333333 </v>
   <v>       0.50000000       0.25000000       0.08333333 </v>
   <v>      -0.41666667       0.25000000       0.08333333 </v>
   <v>      -0.33333333       0.25000000       0.08333333 </v>
   <v>      -0.25000000       0.25000000       0.08333333 </v>
   <v>      -0.16666667       0.25000000       0.08333333 </v>
   <v>      -0.08333333       0.25000000       0.08333333 </v>
   <v>       0.00000000       0.33333333       0.08333333 </v>
   <v>       0.08333333       0.33333333       0.08333333 </v>
   <v>       0.16666667       0.33333333       0.08333333 </v>
   <v>       0.25000000       0.33333333       0.08333333 </v>
   <v>       0.33333333       0.33333333       0.08333333 </v>
   <v>       0.41666667       0.33333333       0.08333333 </v>
   <v>       0.50000000       0.33333333       0.08333333 </v>
   <v>      -0.41666667       0.33333333       0.08333333 </v>
   <v>      -0.33333333       0.33333333       0.08333333 </v>
   <v>      -0.25000000       0.33333333       0.08333333 </v>
   <v>      -0.16666667       0.33333333       0.08333333 </v>
   <v>      -0.08333333       0.33333333       0.08333333 </v>
   <v>       0.00000000       0.41666667       0.08333333 </v>
   <v>       0.08333333       0.41666667       0.08333333 </v>
   <v>       0.16666667       0.41666667       0.08333333 </v>
   <v>       0.25000000       0.41666667       0.08333333 </v>
   <v>       0.33333333       0.41666667       0.08333333 </v>
   <v>       0.41666667       0.41666667       0.08333333 </v>
   <v>       0.50000000       0.41666667       0.08333333 </v>
   <v>      -0.41666667       0.41666667       0.08333333 </v>
   <v>      -0.33333333       0.41666667       0.08333333 </v>
   <v>      -0.25000000       0.41666667       0.08333333 </v>
   <v>      -0.16666667       0.41666667       0.08333333 </v>
   <v>      -0.08333333       0.41666667       0.08333333 </v>
   <v>       0.00000000       0.50000000       0.08333333 </v>
   <v>       0.08333333       0.50000000       0.08333333 </v>
   <v>       0.16666667       0.50000000       0.08333333 </v>
   <v>       0.25000000       0.50000000       0.08333333 </v>
   <v>       0.33333333       0.50000000       0.08333333 </v>
   <v>       0.41666667       0.50000000       0.08333333 </v>
   <v>       0.50000000       0.50000000       0.08333333 </v>
   <v>      -0.41666667       0.50000000       0.08333333 </v>
   <v>      -0.33333333       0.50000000       0.08333333 </v>
   <v>      -0.25000000       0.50000000       0.08333333 </v>
   <v>      -0.16666667       0.50000000       0.08333333 </v>
   <v>      -0.08333333       0.50000000       0.08333333 </v>
   <v>       0.00000000      -0.41666667       0.08333333 </v>
   <v>       0.08333333      -0.41666667       0.08333333 </v>
   <v>       0.16666667      -0.41666667       0.08333333 </v>
   <v>       0.25000000      -0.41666667       0.08333333 </v>
   <v>       0.33333333      -0.41666667       0.08333333 </v>
   <v>       0.41666667      -0.41666667       0.08333333 </v>
   <v>       0.50000000      -0.41666667       0.08333333 </v>
   <v>      -0.41666667      -0.41666667       0.08333333 </v>
   <v>      -0.33333333      -0.41666667       0.08333333 </v>
   <v>      -0.25000000      -0.41666667       0.08333333 </v>
   <v>      -0.16666667      -0.41666667       0.08333333 </v>
   <v>      -0.08333333      -0.41666667       0.08333333 </v>
   <v>       0.00000000      -0.33333333       0.08333333 </v>
   <v>       0.08333333      -0.33333333       0.08333333 </v>
   <v>       0.16666667      -0.33333333       0.08333333 </v>
   <v>       0.25000000      -0.33333333       0.08333333 </v>
   <v>       0.33333333      -0.33333333       0.08333333 </v>
   <v>       0.41666667      -0.33333333       0.08333333 </v>
   <v>       0.50000000      -0.33333333       0.08333333 </v>
   <v>      -0.41666667      -0.33333333       0.08333333 </v>
   <v>      -0.33333333      -0.33333333       0.08333333 </v>
   <v>      -0.25000000      -0.33333333       0.08333333 </v>
   <v>      -0.16666667      -0.33333333       0.08333333 </v>
   <v>      -0.08333333      -0.33333333       0.08333333 </v>
   <v>       0.00000000      -0.25000000       0.08333333 </v>
   <v>       0.08333333      -0.25000000       0.08333333 </v>
   <v>       0.16666667      -0.25000000       0.08333333 </v>
   <v>       0.25000000      -0.25000000       0.08333333 </v>
   <v>       0.33333333      -0.25000000       0.08333333 </v>
   <v>       0.41666667      -0.25000000       0.08333333 </v>
   <v>       0.50000000      -0.25000000       0.08333333 </v>
   <v>      -0.41666667      -0.25000000       0.08333333 </v>
   <v>      -0.33333333      -0.25000000       0.08333333 </v>
   <v>      -0.25000000      -0.25000000       0.08333333 </v>
   <v>      -0.16666667      -0.25000000       0.08333333 </v>
   <v>      -0.08333333      -0.25000000       0.08333333 </v>
   <v>       0.00000000      -0.16666667       0.08333333 </v>
   <v>       0.08333333      -0.16666667       0.08333333 </v>
   <v>       0.16666667      -0.16666667       0.08333333 </v>
   <v>       0.25000000      -0.16666667       0.08333333 </v>
   <v>       0.33333333      -0.16666667       0.08333333 </v>
   <v>       0.41666667      -0.16666667       0.08333333 </v>
   <v>       0.50000000      -0.16666667       0.08333333 </v>
   <v>      -0.41666667      -0.16666667       0.08333333 </v>
   <v>      -0.33333333      -0.16666667       0.08333333 </v>
   <v>      -0.25000000      -0.16666667       0.08333333 </v>
   <v>      -0.16666667      -0.16666667       0.08333333 </v>
   <v>      -0.08333333      -0.16666667       0.08333333 </v>
   <v>       0.00000000      -0.08333333       0.08333333 </v>
   <v>       0.08333333      -0.08333333       0.08333333 </v>
   <v>       0.16666667      -0.08333333       0.08333333 </v>
   <v>       0.25000000      -0.08333333       0.08333333 </v>
   <v>       0.33333333      -0.08333333       0.08333333 </v>
   <v>       0.41666667      -0.08333333       0.08333333 </v>
   <v>       0.50000000      -0.08333333       0.08333333 </v>
   <v>      -0.41666667      -0.08333333       0.08333333 </v>
   <v>      -0.33333333      -0.08333333       0.08333333 </v>
   <v>      -0.25000000      -0.08333333       0.08333333 </v>
   <v>      -0.16666667      -0.08333333       0.08333333 </v>
   <v>      -0.08333333      -0.08333333       0.08333333 </v>
   <v>       0.00000000       0.00000000       0.16666667 </v>
   <v>       0.08333333       0.00000000       0.16666667 </v>
   <v>       0.16666667       0.00000000       0.16666667 </v>
   <v>       0.25000000       0.00000000       0.16666667 </v>
   <v>       0.33333333       0.00000000       0.16666667 </v>
   <v>       0.41666667       0.00000000       0.16666667 </v>
   <v>       0.50000000       0.00000000       0.16666667 </v>
   <v>      -0.41666667       0.00000000       0.16666667 </v>
   <v>      -0.33333333       0.00000000       0.16666667 </v>
   <v>      -0.25000000       0.00000000       0.16666667 </v>
   <v>      -0.16666667       0.00000000       0.16666667 </v>
   <v>      -0.08333333       0.00000000       0.16666667 </v>
   <v>       0.00000000       0.08333333       0.16666667 </v>
   <v>       0.08333333       0.08333333       0.16666667 </v>
   <v>       0.16666667       0.08333333       0.16666667 </v>
   <v>       0.25000000       0.08333333       0.16666667 </v>
   <v>       0.33333333       0.08333333       0.16666667 </v>
   <v>       0.41666667       0.08333333       0.16666667 </v>
   <v>       0.50000000       0.08333333       0.16666667 </v>
   <v>      -0.41666667       0.08333333       0.16666667 </v>
   <v>      -0.33333333       0.08333333       0.16666667 </v>
   <v>      -0.25000000       0.08333333       0.16666667 </v>
   <v>      -0.16666667       0.08333333       0.16666667 </v>
   <v>      -0.08333333       0.08333333       0.16666667 </v>
   <v>       0.00000000       0.16666667       0.16666667 </v>
   <v>       0.08333333       0.16666667       0.16666667 </v>
   <v>       0.16666667       0.16666667       0.16666667 </v>
   <v>       0.25000000       0.16666667       0.16666667 </v>
   <v>       0.33333333       0.16666667       0.16666667 </v>
   <v>       0.41666667       0.16666667       0.16666667 </v>
   <v>       0.50000000       0.16666667       0.16666667 </v>
   <v>      -0.41666667       0.16666667       0.16666667 </v>
   <v>      -0.33333333       0.16666667       0.16666667 </v>
   <v>      -0.25000000       0.16666667       0.16666667 </v>
   <v>      -0.16666667       0.16666667       0.16666667 </v>
   <v>      -0.08333333       0.16666667       0.16666667 </v>
   <v>       0.00000000       0.25000000       0.16666667 </v>
   <v>       0.08333333       0.25000000       0.16666667 </v>
   <v>       0.16666667       0.25000000       0.16666667 </v>
   <v>       0.25000000       0.25000000       0.16666667 </v>
   <v>       0.33333333       0.25000000       0.16666667 </v>
   <v>       0.41666667       0.25000000       0.16666667 </v>
   <v>       0.50000000       0.25000000       0.16666667 </v>
   <v>      -0.41666667       0.25000000       0.16666667 </v>
   <v>      -0.33333333       0.25000000       0.16666667 </v>
   <v>      -0.25000000       0.25000000       0.16666667 </v>
   <v>      -0.16666667       0.25000000       0.16666667 </v>
   <v>      -0.08333333       0.25000000       0.16666667 </v>
   <v>       0.00000000       0.33333333       0.16666667 </v>
   <v>       0.08333333       0.33333333       0.16666667 </v>
   <v>       0.16666667       0.33333333       0.16666667 </v>
   <v>       0.25000000       0.33333333       0.16666667 </v>
   <v>       0.33333333       0.33333333       0.16666667 </v>
   <v>       0.41666667       0.33333333       0.16666667 </v>
   <v>       0.50000000       0.33333333       0.16666667 </v>
   <v>      -0.41666667       0.33333333       0.16666667 </v>
   <v>      -0.33333333       0.33333333       0.16666667 </v>
   <v>      -0.25000000       0.33333333       0.16666667 </v>
   <v>      -0.16666667       0.33333333       0.16666667 </v>
   <v>      -0.08333333       0.33333333       0.16666667 </v>
   <v>       0.00000000       0.41666667       0.16666667 </v>
   <v>       0.08333333       0.41666667       0.16666667 </v>
   <v>       0.16666667       0.41666667       0.16666667 </v>
   <v>       0.25000000       0.41666667       0.16666667 </v>
   <v>       0.33333333       0.41666667       0.16666667 </v>
   <v>       0.41666667       0.41666667       0.16666667 </v>
   <v>       0.50000000       0.41666667       0.16666667 </v>
   <v>      -0.41666667       0.41666667       0.16666667 </v>
   <v>      -0.33333333       0.41666667       0.16666667 </v>
   <v>      -0.25000000       0.41666667       0.16666667 </v>
   <v>      -0.16666667       0.41666667       0.16666667 </v>
   <v>      -0.08333333       0.41666667       0.16666667 </v>
   <v>       0.00000000       0.50000000       0.16666667 </v>
   <v>       0.08333333       0.50000000       0.16666667 </v>
   <v>       0.16666667       0.50000000       0.16666667 </v>
   <v>       0.25000000       0.50000000       0.16666667 </v>
   <v>       0.33333333       0.50000000       0.16666667 </v>
   <v>       0.41666667       0.50000000       0.16666667 </v>
   <v>       0.50000000       0.50000000       0.16666667 </v>
   <v>      -0.41666667       0.50000000       0.16666667 </v>
   <v>      -0.33333333       0.50000000       0.16666667 </v>
   <v>      -0.25000000       0.50000000       0.16666667 </v>
   <v>      -0.16666667       0.50000000       0.16666667 </v>
   <v>      -0.08333333       0.50000000       0.16666667 </v>
   <v>       0.00000000      -0.41666667       0.16666667 </v>
   <v>       0.08333333      -0.41666667       0.16666667 </v>
   <v>       0.16666667      -0.41666667       0.16666667 </v>
   <v>       0.25000000      -0.41666667       0.16666667 </v>
   <v>       0.33333333      -0.41666667       0.16666667 </v>
   <v>       0.41666667      -0.41666667       0.16666667 </v>
   <v>       0.50000000      -0.41666667       0.16666667 </v>
   <v>      -0.41666667      -0.41666667       0.16666667 </v>
   <v>      -0.33333333      -0.41666667       0.16666667 </v>
   <v>      -0.25000000      -0.41666667       0.16666667 </v>
   <v>      -0.16666667      -0.41666667       0.16666667 </v>
   <v>      -0.08333333      -0.41666667       0.16666667 </v>
   <v>       0.00000000      -0.33333333       0.16666667 </v>
   <v>       0.08333333      -0.33333333       0.16666667 </v>
   <v>       0.16666667      -0.33333333       0.16666667 </v>
   <v>       0.25000000      -0.33333333       0.16666667 </v>
   <v>       0.33333333      -0.33333333       0.16666667 </v>
   <v>       0.41666667      -0.33333333       0.16666667 </v>
   <v>       0.50000000      -0.33333333       0.16666667 </v>
   <v>      -0.41666667      -0.33333333       0.16666667 </v>
   <v>      -0.33333333      -0.33333333       0.16666667 </v>
   <v>      -0.25000000      -0.33333333       0.16666667 </v>
   <v>      -0.16666667      -0.33333333       0.16666667 </v>
   <v>      -0.08333333      -0.33333333       0.16666667 </v>
   <v>       0.00000000      -0.25000000       0.16666667 </v>
   <v>       0.08333333      -0.25000000       0.16666667 </v>
   <v>       0.16666667      -0.25000000       0.16666667 </v>
   <v>       0.25000000      -0.25000000       0.16666667 </v>
   <v>       0.33333333      -0.25000000       0.16666667 </v>
   <v>       0.41666667      -0.25000000       0.16666667 </v>
   <v>       0.50000000      -0.25000000       0.16666667 </v>
   <v>      -0.41666667      -0.25000000       0.16666667 </v>
   <v>      -0.33333333      -0.25000000       0.16666667 </v>
   <v>      -0.25000000      -0.25000000       0.16666667 </v>
   <v>      -0.16666667      -0.25000000       0.16666667 </v>
   <v>      -0.08333333      -0.25000000       0.16666667 </v>
   <v>       0.00000000      -0.16666667       0.16666667 </v>
   <v>       0.08333333      -0.16666667       0.16666667 </v>
   <v>       0.16666667      -0.16666667       0.16666667 </v>
   <v>       0.25000000      -0.16666667       0.16666667 </v>
   <v>       0.33333333      -0.16666667       0.16666667 </v>
   <v>       0.41666667      -0.16666667       0.16666667 </v>
   <v>       0.50000000      -0.16666667       0.16666667 </v>
   <v>      -0.41666667      -0.16666667       0.16666667 </v>
   <v>      -0.33333333      -0.16666667       0.16666667 </v>
   <v>      -0.25000000      -0.16666667       0.16666667 </v>
   <v>      -0.16666667      -0.16666667       0.16666667 </v>
   <v>      -0.08333333      -0.16666667       0.16666667 </v>
   <v>       0.00000000      -0.08333333       0.16666667 </v>
   <v>       0.08333333      -0.08333333       0.16666667 </v>
   <v>       0.16666667      -0.08333333       0.16666667 </v>
   <v>       0.25000000      -0.08333333       0.16666667 </v>
   <v>       0.33333333      -0.08333333       0.16666667 </v>
   <v>       0.41666667      -0.08333333       0.16666667 </v>
   <v>       0.50000000      -0.08333333       0.16666667 </v>
   <v>      -0.41666667      -0.08333333       0.16666667 </v>
   <v>      -0.33333333      -0.08333333       0.16666667 </v>
   <v>      -0.25000000      -0.08333333       0.16666667 </v>
   <v>      -0.16666667      -0.08333333       0.16666667 </v>
   <v>      -0.08333333      -0.08333333       0.16666667 </v>
   <v>       0.00000000       0.00000000       0.25000000 </v>
   <v>       0.08333333       0.00000000       0.25000000 </v>
   <v>       0.16666667       0.00000000       0.25000000 </v>
   <v>       0.25000000       0.00000000       0.25000000 </v>
   <v>       0.33333333       0.00000000       0.25000000 </v>
   <v>       0.41666667       0.00000000       0.25000000 </v>
   <v>       0.50000000       0.00000000       0.25000000 </v>
   <v>      -0.41666667       0.00000000       0.25000000 </v>
   <v>      -0.33333333       0.00000000       0.25000000 </v>
   <v>      -0.25000000       0.00000000       0.25000000 </v>
   <v>      -0.16666667       0.00000000       0.25000000 </v>
   <v>      -0.08333333       0.00000000       0.25000000 </v>
   <v>       0.00000000       0.08333333       0.25000000 </v>
   <v>       0.08333333       0.08333333       0.25000000 </v>
   <v>       0.16666667       0.08333333       0.25000000 </v>
   <v>       0.25000000       0.08333333       0.25000000 </v>
   <v>       0.33333333       0.08333333       0.25000000 </v>
   <v>       0.41666667       0.08333333       0.25000000 </v>
   <v>       0.50000000       0.08333333       0.25000000 </v>
   <v>      -0.41666667       0.08333333       0.25000000 </v>
   <v>      -0.33333333       0.08333333       0.25000000 </v>
   <v>      -0.25000000       0.08333333       0.25000000 </v>
   <v>      -0.16666667       0.08333333       0.25000000 </v>
   <v>      -0.08333333       0.08333333       0.25000000 </v>
   <v>       0.00000000       0.16666667       0.25000000 </v>
   <v>       0.08333333       0.16666667       0.25000000 </v>
   <v>       0.16666667       0.16666667       0.25000000 </v>
   <v>       0.25000000       0.16666667       0.25000000 </v>
   <v>       0.33333333       0.16666667       0.25000000 </v>
   <v>       0.41666667       0.16666667       0.25000000 </v>
   <v>       0.50000000       0.16666667       0.25000000 </v>
   <v>      -0.41666667       0.16666667       0.25000000 </v>
   <v>      -0.33333333       0.16666667       0.25000000 </v>
   <v>      -0.25000000       0.16666667       0.25000000 </v>
   <v>      -0.16666667       0.16666667       0.25000000 </v>
   <v>      -0.08333333       0.16666667       0.25000000 </v>
   <v>       0.00000000       0.25000000       0.25000000 </v>
   <v>       0.08333333       0.25000000       0.25000000 </v>
   <v>       0.16666667       0.25000000       0.25000000 </v>
   <v>       0.25000000       0.25000000       0.25000000 </v>
   <v>       0.33333333       0.25000000       0.25000000 </v>
   <v>       0.41666667       0.25000000       0.25000000 </v>
   <v>       0.50000000       0.25000000       0.25000000 </v>
   <v>      -0.41666667       0.25000000       0.25000000 </v>
   <v>      -0.33333333       0.25000000       0.25000000 </v>
   <v>      -0.25000000       0.25000000       0.25000000 </v>
   <v>      -0.16666667       0.25000000       0.25000000 </v>
   <v>      -0.08333333       0.25000000       0.25000000 </v>
   <v>       0.00000000       0.33333333       0.25000000 </v>
   <v>       0.08333333       0.33333333       0.25000000 </v>
   <v>       0.16666667       0.33333333       0.25000000 </v>
   <v>       0.25000000       0.33333333       0.25000000 </v>
   <v>       0.33333333       0.33333333       0.25000000 </v>
   <v>       0.41666667       0.33333333       0.25000000 </v>
   <v>       0.50000000       0.33333333       0.25000000 </v>
   <v>      -0.41666667       0.33333333       0.25000000 </v>
   <v>      -0.33333333       0.33333333       0.25000000 </v>
   <v>      -0.25000000       0.33333333       0.25000000 </v>
   <v>      -0.16666667       0.33333333       0.25000000 </v>
   <v>      -0.08333333       0.33333333       0.25000000 </v>
   <v>       0.00000000       0.41666667       0.25000000 </v>
   <v>       0.08333333       0.41666667       0.25000000 </v>
   <v>       0.16666667       0.41666667       0.25000000 </v>
   <v>       0.25000000       0.41666667       0.25000000 </v>
   <v>       0.33333333       0.41666667       0.25000000 </v>
   <v>       0.41666667       0.41666667       0.25000000 </v>
   <v>       0.50000000       0.41666667       0.25000000 </v>
   <v>      -0.41666667       0.41666667       0.25000000 </v>
   <v>      -0.33333333       0.41666667       0.25000000 </v>
   <v>      -0.25000000       0.41666667       0.25000000 </v>
   <v>      -0.16666667       0.41666667       0.25000000 </v>
   <v>      -0.08333333       0.41666667       0.25000000 </v>
   <v>       0.00000000       0.50000000       0.25000000 </v>
   <v>       0.08333333       0.50000000       0.25000000 </v>
   <v>       0.16666667       0.50000000       0.25000000 </v>
   <v>       0.25000000       0.50000000       0.25000000 </v>
   <v>       0.33333333       0.50000000       0.25000000 </v>
   <v>       0.41666667       0.50000000       0.25000000 </v>
   <v>       0.50000000       0.50000000       0.25000000 </v>
   <v>      -0.41666667       0.50000000       0.25000000 </v>
   <v>      -0.33333333       0.50000000       0.25000000 </v>
   <v>      -0.25000000       0.50000000       0.25000000 </v>
   <v>      -0.16666667       0.50000000       0.25000000 </v>
   <v>      -0.08333333       0.50000000       0.25000000 </v>
   <v>       0.00000000      -0.41666667       0.25000000 </v>
   <v>       0.08333333      -0.41666667       0.25000000 </v>
   <v>       0.16666667      -0.41666667       0.25000000 </v>
   <v>       0.25000000      -0.41666667       0.25000000 </v>
   <v>       0.33333333      -0.41666667       0.25000000 </v>
   <v>       0.41666667      -0.41666667       0.25000000 </v>
   <v>       0.50000000      -0.41666667       0.25000000 </v>
   <v>      -0.41666667      -0.41666667       0.25000000 </v>
   <v>      -0.33333333      -0.41666667       0.25000000 </v>
   <v>      -0.25000000      -0.41666667       0.25000000 </v>
   <v>      -0.16666667      -0.41666667       0.25000000 </v>
   <v>      -0.08333333      -0.41666667       0.25000000 </v>
   <v>       0.00000000      -0.33333333       0.25000000 </v>
   <v>       0.08333333      -0.33333333       0.25000000 </v>
   <v>       0.16666667      -0.33333333       0.25000000 </v>
   <v>       0.25000000      -0.33333333       0.25000000 </v>
   <v>       0.33333333      -0.33333333       0.25000000 </v>
   <v>       0.41666667      -0.33333333       0.25000000 </v>
   <v>       0.50000000      -0.33333333       0.25000000 </v>
   <v>      -0.41666667      -0.33333333       0.25000000 </v>
   <v>      -0.33333333      -0.33333333       0.25000000 </v>
   <v>      -0.25000000      -0.33333333       0.25000000 </v>
   <v>      -0.16666667      -0.33333333       0.25000000 </v>
   <v>      -0.08333333      -0.33333333       0.25000000 </v>
   <v>       0.00000000      -0.25000000       0.25000000 </v>
   <v>       0.08333333      -0.25000000       0.25000000 </v>
   <v>       0.16666667      -0.25000000       0.25000000 </v>
   <v>       0.25000000      -0.25000000       0.25000000 </v>
   <v>       0.33333333      -0.25000000       0.25000000 </v>
   <v>       0.41666667      -0.25000000       0.25000000 </v>
   <v>       0.50000000      -0.25000000       0.25000000 </v>
   <v>      -0.41666667      -0.25000000       0.25000000 </v>
   <v>      -0.33333333      -0.25000000       0.25000000 </v>
   <v>      -0.25000000      -0.25000000       0.25000000 </v>
   <v>      -0.16666667      -0.25000000       0.25000000 </v>
   <v>      -0.08333333      -0.25000000       0.25000000 </v>
   <v>       0.00000000      -0.16666667       0.25000000 </v>
   <v>       0.08333333      -0.16666667       0.25000000 </v>
   <v>       0.16666667      -0.16666667       0.25000000 </v>
   <v>       0.25000000      -0.16666667       0.25000000 </v>
   <v>       0.33333333      -0.16666667       0.25000000 </v>
   <v>       0.41666667      -0.16666667       0.25000000 </v>
   <v>       0.50000000      -0.16666667       0.25000000 </v>
   <v>      -0.41666667      -0.16666667       0.25000000 </v>
   <v>      -0.33333333      -0.16666667       0.25000000 </v>
   <v>      -0.25000000      -0.16666667       0.25000000 </v>
   <v>      -0.16666667      -0.16666667       0.25000000 </v>
   <v>      -0.08333333      -0.16666667       0.25000000 </v>
   <v>       0.00000000      -0.08333333       0.25000000 </v>
   <v>       0.08333333      -0.08333333       0.25000000 </v>
   <v>       0.16666667      -0.08333333       0.25000000 </v>
   <v>       0.25000000      -0.08333333       0.25000000 </v>
   <v>       0.33333333      -0.08333333       0.25000000 </v>
   <v>       0.41666667      -0.08333333       0.25000000 </v>
   <v>       0.50000000      -0.08333333       0.25000000 </v>
   <v>      -0.41666667      -0.08333333       0.25000000 </v>
   <v>      -0.33333333      -0.08333333       0.25000000 </v>
   <v>      -0.25000000      -0.08333333       0.25000000 </v>
   <v>      -0.16666667      -0.08333333       0.25000000 </v>
   <v>      -0.08333333      -0.08333333       0.25000000 </v>
   <v>       0.00000000       0.00000000       0.33333333 </v>
   <v>       0.08333333       0.00000000       0.33333333 </v>
   <v>       0.16666667       0.00000000       0.33333333 </v>
   <v>       0.25000000       0.00000000       0.33333333 </v>
   <v>       0.33333333       0.00000000       0.33333333 </v>
   <v>       0.41666667       0.00000000       0.33333333 </v>
   <v>       0.50000000       0.00000000       0.33333333 </v>
   <v>      -0.41666667       0.00000000       0.33333333 </v>
   <v>      -0.33333333       0.00000000       0.33333333 </v>
   <v>      -0.25000000       0.00000000       0.33333333 </v>
   <v>      -0.16666667       0.00000000       0.33333333 </v>
   <v>      -0.08333333       0.00000000       0.33333333 </v>
   <v>       0.00000000       0.08333333       0.33333333 </v>
   <v>       0.08333333       0.08333333       0.33333333 </v>
   <v>       0.16666667       0.08333333       0.33333333 </v>
   <v>       0.25000000       0.08333333       0.33333333 </v>
   <v>       0.33333333       0.08333333       0.33333333 </v>
   <v>       0.41666667       0.08333333       0.33333333 </v>
   <v>       0.50000000       0.08333333       0.33333333 </v>
   <v>      -0.41666667       0.08333333       0.33333333 </v>
   <v>      -0.33333333       0.08333333       0.33333333 </v>
   <v>      -0.25000000       0.08333333       0.33333333 </v>
   <v>      -0.16666667       0.08333333       0.33333333 </v>
   <v>      -0.08333333       0.08333333       0.33333333 </v>
   <v>       0.00000000       0.16666667       0.33333333 </v>
   <v>       0.08333333       0.16666667       0.33333333 </v>
   <v>       0.16666667       0.16666667       0.33333333 </v>
   <v>       0.25000000       0.16666667       0.33333333 </v>
   <v>       0.33333333       0.16666667       0.33333333 </v>
   <v>       0.41666667       0.16666667       0.33333333 </v>
   <v>       0.50000000       0.16666667       0.33333333 </v>
   <v>      -0.41666667       0.16666667       0.33333333 </v>
   <v>      -0.33333333       0.16666667       0.33333333 </v>
   <v>      -0.25000000       0.16666667       0.33333333 </v>
   <v>      -0.16666667       0.16666667       0.33333333 </v>
   <v>      -0.08333333       0.16666667       0.33333333 </v>
   <v>       0.00000000       0.25000000       0.33333333 </v>
   <v>       0.08333333       0.25000000       0.33333333 </v>
   <v>       0.16666667       0.25000000       0.33333333 </v>
   <v>       0.25000000       0.25000000       0.33333333 </v>
   <v>       0.33333333       0.25000000       0.33333333 </v>
   <v>       0.41666667       0.25000000       0.33333333 </v>
   <v>       0.50000000       0.25000000       0.33333333 </v>
   <v>      -0.41666667       0.25000000       0.33333333 </v>
   <v>      -0.33333333       0.25000000       0.33333333 </v>
   <v>      -0.25000000       0.25000000       0.33333333 </v>
   <v>      -0.16666667       0.25000000       0.33333333 </v>
   <v>      -0.08333333       0.25000000       0.33333333 </v>
   <v>       0.00000000       0.33333333       0.33333333 </v>
   <v>       0.08333333       0.33333333       0.33333333 </v>
   <v>       0.16666667       0.33333333       0.33333333 </v>
   <v>       0.25000000       0.33333333       0.33333333 </v>
   <v>       0.33333333       0.33333333       0.33333333 </v>
   <v>       0.41666667       0.33333333       0.33333333 </v>
   <v>       0.50000000       0.33333333       0.33333333 </v>
   <v>      -0.41666667       0.33333333       0.33333333 </v>
   <v>      -0.33333333       0.33333333       0.33333333 </v>
   <v>      -0.25000000       0.33333333       0.33333333 </v>
   <v>      -0.16666667       0.33333333       0.33333333 </v>
   <v>      -0.08333333       0.33333333       0.33333333 </v>
   <v>       0.00000000       0.41666667       0.33333333 </v>
   <v>       0.08333333       0.41666667       0.33333333 </v>
   <v>       0.16666667       0.41666667       0.33333333 </v>
   <v>       0.25000000       0.41666667       0.33333333 </v>
   <v>       0.33333333       0.41666667       0.33333333 </v>
   <v>       0.41666667       0.41666667       0.33333333 </v>
   <v>       0.50000000       0.41666667       0.33333333 </v>
   <v>      -0.41666667       0.41666667       0.33333333 </v>
   <v>      -0.33333333       0.41666667       0.33333333 </v>
   <v>      -0.25000000       0.41666667       0.33333333 </v>
   <v>      -0.16666667       0.41666667       0.33333333 </v>
   <v>      -0.08333333       0.41666667       0.33333333 </v>
   <v>       0.00000000       0.50000000       0.33333333 </v>
   <v>       0.08333333       0.50000000       0.33333333 </v>
   <v>       0.16666667       0.50000000       0.33333333 </v>
   <v>       0.25000000       0.50000000       0.33333333 </v>
   <v>       0.33333333       0.50000000       0.33333333 </v>
   <v>       0.41666667       0.50000000       0.33333333 </v>
   <v>       0.50000000       0.50000000       0.33333333 </v>
   <v>      -0.41666667       0.50000000       0.33333333 </v>
   <v>      -0.33333333       0.50000000       0.33333333 </v>
   <v>      -0.25000000       0.50000000       0.33333333 </v>
   <v>      -0.16666667       0.50000000       0.33333333 </v>
   <v>      -0.08333333       0.50000000       0.33333333 </v>
   <v>       0.00000000      -0.41666667       0.33333333 </v>
   <v>       0.08333333      -0.41666667       0.33333333 </v>
   <v>       0.16666667      -0.41666667       0.33333333 </v>
   <v>       0.25000000      -0.41666667       0.33333333 </v>
   <v>       0.33333333      -0.41666667       0.33333333 </v>
   <v>       0.41666667      -0.41666667       0.33333333 </v>
   <v>       0.50000000      -0.41666667       0.33333333 </v>
   <v>      -0.41666667      -0.41666667       0.33333333 </v>
   <v>      -0.33333333      -0.41666667       0.33333333 </v>
   <v>      -0.25000000      -0.41666667       0.33333333 </v>
   <v>      -0.16666667      -0.41666667       0.33333333 </v>
   <v>      -0.08333333      -0.41666667       0.33333333 </v>
   <v>       0.00000000      -0.33333333       0.33333333 </v>
   <v>       0.08333333      -0.33333333       0.33333333 </v>
   <v>       0.16666667      -0.33333333       0.33333333 </v>
   <v>       0.25000000      -0.33333333       0.33333333 </v>
   <v>       0.33333333      -0.33333333       0.33333333 </v>
   <v>       0.41666667      -0.33333333       0.33333333 </v>
   <v>       0.50000000      -0.33333333       0.33333333 </v>
   <v>      -0.41666667      -0.33333333       0.33333333 </v>
   <v>      -0.33333333      -0.33333333       0.33333333 </v>
   <v>      -0.25000000      -0.33333333       0.33333333 </v>
   <v>      -0.16666667      -0.33333333       0.33333333 </v>
   <v>      -0.08333333      -0.33333333       0.33333333 </v>
   <v>       0.00000000      -0.25000000       0.33333333 </v>
   <v>       0.08333333      -0.25000000       0.33333333 </v>
   <v>       0.16666667      -0.25000000       0.33333333 </v>
   <v>       0.25000000      -0.25000000       0.33333333 </v>
   <v>       0.33333333      -0.25000000       0.33333333 </v>
   <v>       0.41666667      -0.25000000       0.33333333 </v>
   <v>       0.50000000      -0.25000000       0.33333333 </v>
   <v>      -0.41666667      -0.25000000       0.33333333 </v>
   <v>      -0.33333333      -0.25000000       0.33333333 </v>
   <v>      -0.25000000      -0.25000000       0.33333333 </v>
   <v>      -0.16666667      -0.25000000       0.33333333 </v>
   <v>      -0.08333333      -0.25000000       0.33333333 </v>
   <v>       0.00000000      -0.16666667       0.33333333 </v>
   <v>       0.08333333      -0.16666667       0.33333333 </v>
   <v>       0.16666667      -0.16666667       0.33333333 </v>
   <v>       0.25000000      -0.16666667       0.33333333 </v>
   <v>       0.33333333      -0.16666667       0.33333333 </v>
   <v>       0.41666667      -0.16666667       0.33333333 </v>
   <v>       0.50000000      -0.16666667       0.33333333 </v>
   <v>      -0.41666667      -0.16666667       0.33333333 </v>
   <v>      -0.33333333      -0.16666667       0.33333333 </v>
   <v>      -0.25000000      -0.16666667       0.33333333 </v>
   <v>      -0.16666667      -0.16666667       0.33333333 </v>
   <v>      -0.08333333      -0.16666667       0.33333333 </v>
   <v>       0.00000000      -0.08333333       0.33333333 </v>
   <v>       0.08333333      -0.08333333       0.33333333 </v>
   <v>       0.16666667      -0.08333333       0.33333333 </v>
   <v>       0.25000000      -0.08333333       0.33333333 </v>
   <v>       0.33333333      -0.08333333       0.33333333 </v>
   <v>       0.41666667      -0.08333333       0.33333333 </v>
   <v>       0.50000000      -0.08333333       0.33333333 </v>
   <v>      -0.41666667      -0.08333333       0.33333333 </v>
   <v>      -0.33333333      -0.08333333       0.33333333 </v>
   <v>      -0.25000000      -0.08333333       0.33333333 </v>
   <v>      -0.16666667      -0.08333333       0.33333333 </v>
   <v>      -0.08333333      -0.08333333       0.33333333 </v>
   <v>       0.00000000       0.00000000       0.41666667 </v>
   <v>       0.08333333       0.00000000       0.41666667 </v>
   <v>       0.16666667       0.00000000       0.41666667 </v>
   <v>       0.25000000       0.00000000       0.41666667 </v>
   <v>       0.33333333       0.00000000       0.41666667 </v>
   <v>       0.41666667       0.00000000       0.41666667 </v>
   <v>       0.50000000       0.00000000       0.41666667 </v>
   <v>      -0.41666667       0.00000000       0.41666667 </v>
   <v>      -0.33333333       0.00000000       0.41666667 </v>
   <v>      -0.25000000       0.00000000       0.41666667 </v>
   <v>      -0.16666667       0.00000000       0.41666667 </v>
   <v>      -0.08333333       0.00000000       0.41666667 </v>
   <v>       0.00000000       0.08333333       0.41666667 </v>
   <v>       0.08333333       0.08333333       0.41666667 </v>
   <v>       0.16666667       0.08333333       0.41666667 </v>
   <v>       0.25000000       0.08333333       0.41666667 </v>
   <v>       0.33333333       0.08333333       0.41666667 </v>
   <v>       0.41666667       0.08333333       0.41666667 </v>
   <v>       0.50000000       0.08333333       0.41666667 </v>
   <v>      -0.41666667       0.08333333       0.41666667 </v>
   <v>      -0.33333333       0.08333333       0.41666667 </v>
   <v>      -0.25000000       0.08333333       0.41666667 </v>
   <v>      -0.16666667       0.08333333       0.41666667 </v>
   <v>      -0.08333333       0.08333333       0.41666667 </v>
   <v>       0.00000000       0.16666667       0.41666667 </v>
   <v>       0.08333333       0.16666667       0.41666667 </v>
   <v>       0.16666667       0.16666667       0.41666667 </v>
   <v>       0.25000000       0.16666667       0.41666667 </v>
   <v>       0.33333333       0.16666667       0.41666667 </v>
   <v>       0.41666667       0.16666667       0.41666667 </v>
   <v>       0.50000000       0.16666667       0.41666667 </v>
   <v>      -0.41666667       0.16666667       0.41666667 </v>
   <v>      -0.33333333       0.16666667       0.41666667 </v>
   <v>      -0.25000000       0.16666667       0.41666667 </v>
   <v>      -0.16666667       0.16666667       0.41666667 </v>
   <v>      -0.08333333       0.16666667       0.41666667 </v>
   <v>       0.00000000       0.25000000       0.41666667 </v>
   <v>       0.08333333       0.25000000       0.41666667 </v>
   <v>       0.16666667       0.25000000       0.41666667 </v>
   <v>       0.25000000       0.25000000       0.41666667 </v>
   <v>       0.33333333       0.25000000       0.41666667 </v>
   <v>       0.41666667       0.25000000       0.41666667 </v>
   <v>       0.50000000       0.25000000       0.41666667 </v>
   <v>      -0.41666667       0.25000000       0.41666667 </v>
   <v>      -0.33333333       0.25000000       0.41666667 </v>
   <v>      -0.25000000       0.25000000       0.41666667 </v>
   <v>      -0.16666667       0.25000000       0.41666667 </v>
   <v>      -0.08333333       0.25000000       0.41666667 </v>
   <v>       0.00000000       0.33333333       0.41666667 </v>
   <v>       0.08333333       0.33333333       0.41666667 </v>
   <v>       0.16666667       0.33333333       0.41666667 </v>
   <v>       0.25000000       0.33333333       0.41666667 </v>
   <v>       0.33333333       0.33333333       0.41666667 </v>
   <v>       0.41666667       0.33333333       0.41666667 </v>
   <v>       0.50000000       0.33333333       0.41666667 </v>
   <v>      -0.41666667       0.33333333       0.41666667 </v>
   <v>      -0.33333333       0.33333333       0.41666667 </v>
   <v>      -0.25000000       0.33333333       0.41666667 </v>
   <v>      -0.16666667       0.33333333       0.41666667 </v>
   <v>      -0.08333333       0.33333333       0.41666667 </v>
   <v>       0.00000000       0.41666667       0.41666667 </v>
   <v>       0.08333333       0.41666667       0.41666667 </v>
   <v>       0.16666667       0.41666667       0.41666667 </v>
   <v>       0.25000000       0.41666667       0.41666667 </v>
   <v>       0.33333333       0.41666667       0.41666667 </v>
   <v>       0.41666667       0.41666667       0.41666667 </v>
   <v>       0.50000000       0.41666667       0.41666667 </v>
   <v>      -0.41666667       0.41666667       0.41666667 </v>
   <v>      -0.33333333       0.41666667       0.41666667 </v>
   <v>      -0.25000000       0.41666667       0.41666667 </v>
   <v>      -0.16666667       0.41666667       0.41666667 </v>
   <v>      -0.08333333       0.41666667       0.41666667 </v>
   <v>       0.00000000       0.50000000       0.41666667 </v>
   <v>       0.08333333       0.50000000       0.41666667 </v>
   <v>       0.16666667       0.50000000       0.41666667 </v>
   <v>       0.25000000       0.50000000       0.41666667 </v>
   <v>       0.33333333       0.50000000       0.41666667 </v>
   <v>       0.41666667       0.50000000       0.41666667 </v>
   <v>       0.50000000       0.50000000       0.41666667 </v>
   <v>      -0.41666667       0.50000000       0.41666667 </v>
   <v>      -0.33333333       0.50000000       0.41666667 </v>
   <v>      -0.25000000       0.50000000       0.41666667 </v>
   <v>      -0.16666667       0.50000000       0.41666667 </v>
   <v>      -0.08333333       0.50000000       0.41666667 </v>
   <v>       0.00000000      -0.41666667       0.41666667 </v>
   <v>       0.08333333      -0.41666667       0.41666667 </v>
   <v>       0.16666667      -0.41666667       0.41666667 </v>
   <v>       0.25000000      -0.41666667       0.41666667 </v>
   <v>       0.33333333      -0.41666667       0.41666667 </v>
   <v>       0.41666667      -0.41666667       0.41666667 </v>
   <v>       0.50000000      -0.41666667       0.41666667 </v>
   <v>      -0.41666667      -0.41666667       0.41666667 </v>
   <v>      -0.33333333      -0.41666667       0.41666667 </v>
   <v>      -0.25000000      -0.41666667       0.41666667 </v>
   <v>      -0.16666667      -0.41666667       0.41666667 </v>
   <v>      -0.08333333      -0.41666667       0.41666667 </v>
   <v>       0.00000000      -0.33333333       0.41666667 </v>
   <v>       0.08333333      -0.33333333       0.41666667 </v>
   <v>       0.16666667      -0.33333333       0.41666667 </v>
   <v>       0.25000000      -0.33333333       0.41666667 </v>
   <v>       0.33333333      -0.33333333       0.41666667 </v>
   <v>       0.41666667      -0.33333333       0.41666667 </v>
   <v>       0.50000000      -0.33333333       0.41666667 </v>
   <v>      -0.41666667      -0.33333333       0.41666667 </v>
   <v>      -0.33333333      -0.33333333       0.41666667 </v>
   <v>      -0.25000000      -0.33333333       0.41666667 </v>
   <v>      -0.16666667      -0.33333333       0.41666667 </v>
   <v>      -0.08333333      -0.33333333       0.41666667 </v>
   <v>       0.00000000      -0.25000000       0.41666667 </v>
   <v>       0.08333333      -0.25000000       0.41666667 </v>
   <v>       0.16666667      -0.25000000       0.41666667 </v>
   <v>       0.25000000      -0.25000000       0.41666667 </v>
   <v>       0.33333333      -0.25000000       0.41666667 </v>
   <v>       0.41666667      -0.25000000       0.41666667 </v>
   <v>       0.50000000      -0.25000000       0.41666667 </v>
   <v>      -0.41666667      -0.25000000       0.41666667 </v>
   <v>      -0.33333333      -0.25000000       0.41666667 </v>
   <v>      -0.25000000      -0.25000000       0.41666667 </v>
   <v>      -0.16666667      -0.25000000       0.41666667 </v>
   <v>      -0.08333333      -0.25000000       0.41666667 </v>
   <v>       0.00000000      -0.16666667       0.41666667 </v>
   <v>       0.08333333      -0.16666667       0.41666667 </v>
   <v>       0.16666667      -0.16666667       0.41666667 </v>
   <v>       0.25000000      -0.16666667       0.41666667 </v>
   <v>       0.33333333      -0.16666667       0.41666667 </v>
   <v>       0.41666667      -0.16666667       0.41666667 </v>
   <v>       0.50000000      -0.16666667       0.41666667 </v>
   <v>      -0.41666667      -0.16666667       0.41666667 </v>
   <v>      -0.33333333      -0.16666667       0.41666667 </v>
   <v>      -0.25000000      -0.16666667       0.41666667 </v>
   <v>      -0.16666667      -0.16666667       0.41666667 </v>
   <v>      -0.08333333      -0.16666667       0.41666667 </v>
   <v>       0.00000000      -0.08333333       0.41666667 </v>
   <v>       0.08333333      -0.08333333       0.41666667 </v>
   <v>       0.16666667      -0.08333333       0.41666667 </v>
   <v>       0.25000000      -0.08333333       0.41666667 </v>
   <v>       0.33333333      -0.08333333       0.41666667 </v>
   <v>       0.41666667      -0.08333333       0.41666667 </v>
   <v>       0.50000000      -0.08333333       0.41666667 </v>
   <v>      -0.41666667      -0.08333333       0.41666667 </v>
   <v>      -0.33333333      -0.08333333       0.41666667 </v>
   <v>      -0.25000000      -0.08333333       0.41666667 </v>
   <v>      -0.16666667      -0.08333333       0.41666667 </v>
   <v>      -0.08333333      -0.08333333       0.41666667 </v>
   <v>       0.00000000       0.00000000       0.50000000 </v>
   <v>       0.08333333       0.00000000       0.50000000 </v>
   <v>       0.16666667       0.00000000       0.50000000 </v>
   <v>       0.25000000       0.00000000       0.50000000 </v>
   <v>       0.33333333       0.00000000       0.50000000 </v>
   <v>       0.41666667       0.00000000       0.50000000 </v>
   <v>       0.50000000       0.00000000       0.50000000 </v>
   <v>       0.00000000       0.08333333       0.50000000 </v>
   <v>       0.08333333       0.08333333       0.50000000 </v>
   <v>       0.16666667       0.08333333       0.50000000 </v>
   <v>       0.25000000       0.08333333       0.50000000 </v>
   <v>       0.33333333       0.08333333       0.50000000 </v>
   <v>       0.41666667       0.08333333       0.50000000 </v>
   <v>       0.50000000       0.08333333       0.50000000 </v>
   <v>      -0.41666667       0.08333333       0.50000000 </v>
   <v>      -0.33333333       0.08333333       0.50000000 </v>
   <v>      -0.25000000       0.08333333       0.50000000 </v>
   <v>      -0.16666667       0.08333333       0.50000000 </v>
   <v>      -0.08333333       0.08333333       0.50000000 </v>
   <v>       0.00000000       0.16666667       0.50000000 </v>
   <v>       0.08333333       0.16666667       0.50000000 </v>
   <v>       0.16666667       0.16666667       0.50000000 </v>
   <v>       0.25000000       0.16666667       0.50000000 </v>
   <v>       0.33333333       0.16666667       0.50000000 </v>
   <v>       0.41666667       0.16666667       0.50000000 </v>
   <v>       0.50000000       0.16666667       0.50000000 </v>
   <v>      -0.41666667       0.16666667       0.50000000 </v>
   <v>      -0.33333333       0.16666667       0.50000000 </v>
   <v>      -0.25000000       0.16666667       0.50000000 </v>
   <v>      -0.16666667       0.16666667       0.50000000 </v>
   <v>      -0.08333333       0.16666667       0.50000000 </v>
   <v>       0.00000000       0.25000000       0.50000000 </v>
   <v>       0.08333333       0.25000000       0.50000000 </v>
   <v>       0.16666667       0.25000000       0.50000000 </v>
   <v>       0.25000000       0.25000000       0.50000000 </v>
   <v>       0.33333333       0.25000000       0.50000000 </v>
   <v>       0.41666667       0.25000000       0.50000000 </v>
   <v>       0.50000000       0.25000000       0.50000000 </v>
   <v>      -0.41666667       0.25000000       0.50000000 </v>
   <v>      -0.33333333       0.25000000       0.50000000 </v>
   <v>      -0.25000000       0.25000000       0.50000000 </v>
   <v>      -0.16666667       0.25000000       0.50000000 </v>
   <v>      -0.08333333       0.25000000       0.50000000 </v>
   <v>       0.00000000       0.33333333       0.50000000 </v>
   <v>       0.08333333       0.33333333       0.50000000 </v>
   <v>       0.16666667       0.33333333       0.50000000 </v>
   <v>       0.25000000       0.33333333       0.50000000 </v>
   <v>       0.33333333       0.33333333       0.50000000 </v>
   <v>       0.41666667       0.33333333       0.50000000 </v>
   <v>       0.50000000       0.33333333       0.50000000 </v>
   <v>      -0.41666667       0.33333333       0.50000000 </v>
   <v>      -0.33333333       0.33333333       0.50000000 </v>
   <v>      -0.25000000       0.33333333       0.50000000 </v>
   <v>      -0.16666667       0.33333333       0.50000000 </v>
   <v>      -0.08333333       0.33333333       0.50000000 </v>
   <v>       0.00000000       0.41666667       0.50000000 </v>
   <v>       0.08333333       0.41666667       0.50000000 </v>
   <v>       0.16666667       0.41666667       0.50000000 </v>
   <v>       0.25000000       0.41666667       0.50000000 </v>
   <v>       0.33333333       0.41666667       0.50000000 </v>
   <v>       0.41666667       0.41666667       0.50000000 </v>
   <v>       0.50000000       0.41666667       0.50000000 </v>
   <v>      -0.41666667       0.41666667       0.50000000 </v>
   <v>      -0.33333333       0.41666667       0.50000000 </v>
   <v>      -0.25000000       0.41666667       0.50000000 </v>
   <v>      -0.16666667       0.41666667       0.50000000 </v>
   <v>      -0.08333333       0.41666667       0.50000000 </v>
   <v>       0.00000000       0.50000000       0.50000000 </v>
   <v>       0.08333333       0.50000000       0.50000000 </v>
   <v>       0.16666667       0.50000000       0.50000000 </v>
   <v>       0.25000000       0.50000000       0.50000000 </v>
   <v>       0.33333333       0.50000000       0.50000000 </v>
   <v>       0.41666667       0.50000000       0.50000000 </v>
   <v>       0.50000000       0.50000000       0.50000000 </v>
  </varray>
  <varray name="weights" >
   <v>       0.00057870 </v>
   <v>       0.00115741 </v>
   <v>       0.00115741 </v>
   <v>       0.00115741 </v>
   <v>       0.00115741 </v>
   <v>       0.00115741 </v>
   <v>       0.00057870 </v>
   <v>       0.00115741 </v>
   <v>       0.00115741 </v>
   <v>       0.00115741 </v>
   <v>       0.00115741 </v>
   <v>       0.00115741 </v>
   <v>       0.00115741 </v>
   <v>       0.00115741 </v>
   <v>       0.00115741 </v>
   <v>       0.00115741 </v>
   <v>       0.00115741 </v>
   <v>       0.00115741 </v>
   <v>       0.00115741 </v>
   <v>       0.00115741 </v>
   <v>       0.00115741 </v>
   <v>       0.00115741 </v>
   <v>       0.00115741 </v>
   <v>       0.00115741 </v>
   <v>       0.00115741 </v>
   <v>       0.00115741 </v>
   <v>       0.00115741 </v>
   <v>       0.00115741 </v>
   <v>       0.00115741 </v>
   <v>       0.00115741 </v>
   <v>       0.00115741 </v>
   <v>       0.00115741 </v>
   <v>       0.00115741 </v>
   <v>       0.00115741 </v>
   <v>       0.00115741 </v>
   <v>       0.00115741 </v>
   <v>       0.00115741 </v>
   <v>       0.00115741 </v>
   <v>       0.00115741 </v>
   <v>       0.00115741 </v>
   <v>       0.00115741 </v>
   <v>       0.00115741 </v>
   <v>       0.00115741 </v>
   <v>       0.00115741 </v>
   <v>       0.00115741 </v>
   <v>       0.00115741 </v>
   <v>       0.00115741 </v>
   <v>       0.00115741 </v>
   <v>       0.00115741 </v>
   <v>       0.00115741 </v>
   <v>       0.00115741 </v>
   <v>       0.00115741 </v>
   <v>       0.00115741 </v>
   <v>       0.00115741 </v>
   <v>       0.00115741 </v>
   <v>       0.00115741 </v>
   <v>       0.00115741 </v>
   <v>       0.00115741 </v>
   <v>       0.00115741 </v>
   <v>       0.00115741 </v>
   <v>       0.00115741 </v>
   <v>       0.00115741 </v>
   <v>       0.00115741 </v>
   <v>       0.00115741 </v>
   <v>       0.00115741 </v>
   <v>       0.00115741 </v>
   <v>       0.00115741 </v>
   <v>       0.00057870 </v>
   <v>       0.00115741 </v>
   <v>       0.00115741 </v>
   <v>       0.00115741 </v>
   <v>       0.00115741 </v>
   <v>       0.00115741 </v>
   <v>       0.00057870 </v>
   <v>       0.00115741 </v>
   <v>       0.00115741 </v>
   <v>       0.00115741 </v>
   <v>       0.00115741 </v>
   <v>       0.00115741 </v>
   <v>       0.00115741 </v>
   <v>       0.00115741 </v>
   <v>       0.00115741 </v>
   <v>       0.00115741 </v>
   <v>       0.00115741 </v>
   <v>       0.00115741 </v>
   <v>       0.00115741 </v>
   <v>       0.00115741 </v>
   <v>       0.00115741 </v>
   <v>       0.00115741 </v>
   <v>       0.00115741 </v>
   <v>       0.00115741 </v>
   <v>       0.00115741 </v>
   <v>       0.00115741 </v>
   <v>       0.00115741 </v>
   <v>       0.00115741 </v>
   <v>       0.00115741 </v>
   <v>       0.00115741 </v>
   <v>       0.00115741 </v>
   <v>       0.00115741 </v>
   <v>       0.00115741 </v>
   <v>       0.00115741 </v>
   <v>       0.00115741 </v>
   <v>       0.00115741 </v>
   <v>       0.00115741 </v>
   <v>       0.00115741 </v>
   <v>       0.00115741 </v>
   <v>       0.00115741 </v>
   <v>       0.00115741 </v>
   <v>       0.00115741 </v>
   <v>       0.00115741 </v>
   <v>       0.00115741 </v>
   <v>       0.00115741 </v>
   <v>       0.00115741 </v>
   <v>       0.00115741 </v>
   <v>       0.00115741 </v>
   <v>       0.00115741 </v>
   <v>       0.00115741 </v>
   <v>       0.00115741 </v>
   <v>       0.00115741 </v>
   <v>       0.00115741 </v>
   <v>       0.00115741 </v>
   <v>       0.00115741 </v>
   <v>       0.00115741 </v>
   <v>       0.00115741 </v>
   <v>       0.00115741 </v>
   <v>       0.00115741 </v>
   <v>       0.00115741 </v>
   <v>       0.00115741 </v>
   <v>       0.00115741 </v>
   <v>       0.00115741 </v>
   <v>       0.00115741 </v>
   <v>       0.00115741 </v>
   <v>       0.00115741 </v>
   <v>       0.00115741 </v>
   <v>       0.00115741 </v>
   <v>       0.00115741 </v>
   <v>       0.00115741 </v>
   <v>       0.00115741 </v>
   <v>       0.00115741 </v>
   <v>       0.00115741 </v>
   <v>       0.00115741 </v>
   <v>       0.00115741 </v>
   <v>       0.00115741 </v>
   <v>       0.00115741 </v>
   <v>       0.00115741 </v>
   <v>       0.00115741 </v>
   <v>       0.00115741 </v>
   <v>       0.00115741 </v>
   <v>       0.00115741 </v>
   <v>       0.00115741 </v>
   <v>       0.00115741 </v>
   <v>       0.00115741 </v>
   <v>       0.00115741 </v>
   <v>       0.00115741 </v>
   <v>       0.00115741 </v>
   <v>       0.00115741 </v>
   <v>       0.00115741 </v>
   <v>       0.00115741 </v>
   <v>       0.00115741 </v>
   <v>       0.00115741 </v>
   <v>       0.00115741 </v>
   <v>       0.00115741 </v>
   <v>       0.00115741 </v>
   <v>       0.00115741 </v>
   <v>       0.00115741 </v>
   <v>       0.00115741 </v>
   <v>       0.00115741 </v>
   <v>       0.00115741 </v>
   <v>       0.00115741 </v>
   <v>       0.00115741 </v>
   <v>       0.00115741 </v>
   <v>       0.00115741 </v>
   <v>       0.00115741 </v>
   <v>       0.00115741 </v>
   <v>       0.00115741 </v>
   <v>       0.00115741 </v>
   <v>       0.00115741 </v>
   <v>       0.00115741 </v>
   <v>       0.00115741 </v>
   <v>       0.00115741 </v>
   <v>       0.00115741 </v>
   <v>       0.00115741 </v>
   <v>       0.00115741 </v>
   <v>       0.00115741 </v>
   <v>       0.00115741 </v>
   <v>       0.00115741 </v>
   <v>       0.00115741 </v>
   <v>       0.00115741 </v>
   <v>       0.00115741 </v>
   <v>       0.00115741 </v>
   <v>       0.00115741 </v>
   <v>       0.00115741 </v>
   <v>       0.00115741 </v>
   <v>       0.00115741 </v>
   <v>       0.00115741 </v>
   <v>       0.00115741 </v>
   <v>       0.00115741 </v>
   <v>       0.00115741 </v>
   <v>       0.00115741 </v>
   <v>       0.00115741 </v>
   <v>       0.00115741 </v>
   <v>       0.00115741 </v>
   <v>       0.00115741 </v>
   <v>       0.00115741 </v>
   <v>       0.00115741 </v>
   <v>       0.00115741 </v>
   <v>       0.00115741 </v>
   <v>       0.00115741 </v>
   <v>       0.00115741 </v>
   <v>       0.00115741 </v>
   <v>       0.00115741 </v>
   <v>       0.00115741 </v>
   <v>       0.00115741 </v>
   <v>       0.00115741 </v>
   <v>       0.00115741 </v>
   <v>       0.00115741 </v>
   <v>       0.00115741 </v>
   <v>       0.00115741 </v>
   <v>       0.00115741 </v>
   <v>       0.00115741 </v>
   <v>       0.00115741 </v>
   <v>       0.00115741 </v>
   <v>       0.00115741 </v>
   <v>       0.00115741 </v>
   <v>       0.00115741 </v>
   <v>       0.00115741 </v>
   <v>       0.00115741 </v>
   <v>       0.00115741 </v>
   <v>       0.00115741 </v>
   <v>       0.00115741 </v>
   <v>       0.00115741 </v>
   <v>       0.00115741 </v>
   <v>       0.00115741 </v>
   <v>       0.00115741 </v>
   <v>       0.00115741 </v>
   <v>       0.00115741 </v>
   <v>       0.00115741 </v>
   <v>       0.00115741 </v>
   <v>       0.00115741 </v>
   <v>       0.00115741 </v>
   <v>       0.00115741 </v>
   <v>       0.00115741 </v>
   <v>       0.00115741 </v>
   <v>       0.00115741 </v>
   <v>       0.00115741 </v>
   <v>       0.00115741 </v>
   <v>       0.00115741 </v>
   <v>       0.00115741 </v>
   <v>       0.00115741 </v>
   <v>       0.00115741 </v>
   <v>       0.00115741 </v>
   <v>       0.00115741 </v>
   <v>       0.00115741 </v>
   <v>       0.00115741 </v>
   <v>       0.00115741 </v>
   <v>       0.00115741 </v>
   <v>       0.00115741 </v>
   <v>       0.00115741 </v>
   <v>       0.00115741 </v>
   <v>       0.00115741 </v>
   <v>       0.00115741 </v>
   <v>       0.00115741 </v>
   <v>       0.00115741 </v>
   <v>       0.00115741 </v>
   <v>       0.00115741 </v>
   <v>       0.00115741 </v>
   <v>       0.00115741 </v>
   <v>       0.00115741 </v>
   <v>       0.00115741 </v>
   <v>       0.00115741 </v>
   <v>       0.00115741 </v>
   <v>       0.00115741 </v>
   <v>       0.00115741 </v>
   <v>       0.00115741 </v>
   <v>       0.00115741 </v>
   <v>       0.00115741 </v>
   <v>       0.00115741 </v>
   <v>       0.00115741 </v>
   <v>       0.00115741 </v>
   <v>       0.00115741 </v>
   <v>       0.00115741 </v>
   <v>       0.00115741 </v>
   <v>       0.00115741 </v>
   <v>       0.00115741 </v>
   <v>       0.00115741 </v>
   <v>       0.00115741 </v>
   <v>       0.00115741 </v>
   <v>       0.00115741 </v>
   <v>       0.00115741 </v>
   <v>       0.00115741 </v>
   <v>       0.00115741 </v>
   <v>       0.00115741 </v>
   <v>       0.00115741 </v>
   <v>       0.00115741 </v>
   <v>       0.00115741 </v>
   <v>       0.00115741 </v>
   <v>       0.00115741 </v>
   <v>       0.00115741 </v>
   <v>       0.00115741 </v>
   <v>       0.00115741 </v>
   <v>       0.00115741 </v>
   <v>       0.00115741 </v>
   <v>       0.00115741 </v>
   <v>       0.00115741 </v>
   <v>       0.00115741 </v>
   <v>       0.00115741 </v>
   <v>       0.00115741 </v>
   <v>       0.00115741 </v>
   <v>       0.00115741 </v>
   <v>       0.00115741 </v>
   <v>       0.00115741 </v>
   <v>       0.00115741 </v>
   <v>       0.00115741 </v>
   <v>       0.00115741 </v>
   <v>       0.00115741 </v>
   <v>       0.00115741 </v>
   <v>       0.00115741 </v>
   <v>       0.00115741 </v>
   <v>       0.00115741 </v>
   <v>       0.00115741 </v>
   <v>       0.00115741 </v>
   <v>       0.00115741 </v>
   <v>       0.00115741 </v>
   <v>       0.00115741 </v>
   <v>       0.00115741 </v>
   <v>       0.00115741 </v>
   <v>       0.00115741 </v>
   <v>       0.00115741 </v>
   <v>       0.00115741 </v>
   <v>       0.00115741 </v>
   <v>       0.00115741 </v>
   <v>       0.00115741 </v>
   <v>       0.00115741 </v>
   <v>       0.00115741 </v>
   <v>       0.00115741 </v>
   <v>       0.00115741 </v>
   <v>       0.00115741 </v>
   <v>       0.00115741 </v>
   <v>       0.00115741 </v>
   <v>       0.00115741 </v>
   <v>       0.00115741 </v>
   <v>       0.00115741 </v>
   <v>       0.00115741 </v>
   <v>       0.00115741 </v>
   <v>       0.00115741 </v>
   <v>       0.00115741 </v>
   <v>       0.00115741 </v>
   <v>       0.00115741 </v>
   <v>       0.00115741 </v>
   <v>       0.00115741 </v>
   <v>       0.00115741 </v>
   <v>       0.00115741 </v>
   <v>       0.00115741 </v>
   <v>       0.00115741 </v>
   <v>       0.00115741 </v>
   <v>       0.00115741 </v>
   <v>       0.00115741 </v>
   <v>       0.00115741 </v>
   <v>       0.00115741 </v>
   <v>       0.00115741 </v>
   <v>       0.00115741 </v>
   <v>       0.00115741 </v>
   <v>       0.00115741 </v>
   <v>       0.00115741 </v>
   <v>       0.00115741 </v>
   <v>       0.00115741 </v>
   <v>       0.00115741 </v>
   <v>       0.00115741 </v>
   <v>       0.00115741 </v>
   <v>       0.00115741 </v>
   <v>       0.00115741 </v>
   <v>       0.00115741 </v>
   <v>       0.00115741 </v>
   <v>       0.00115741 </v>
   <v>       0.00115741 </v>
   <v>       0.00115741 </v>
   <v>       0.00115741 </v>
   <v>       0.00115741 </v>
   <v>       0.00115741 </v>
   <v>       0.00115741 </v>
   <v>       0.00115741 </v>
   <v>       0.00115741 </v>
   <v>       0.00115741 </v>
   <v>       0.00115741 </v>
   <v>       0.00115741 </v>
   <v>       0.00115741 </v>
   <v>       0.00115741 </v>
   <v>       0.00115741 </v>
   <v>       0.00115741 </v>
   <v>       0.00115741 </v>
   <v>       0.00115741 </v>
   <v>       0.00115741 </v>
   <v>       0.00115741 </v>
   <v>       0.00115741 </v>
   <v>       0.00115741 </v>
   <v>       0.00115741 </v>
   <v>       0.00115741 </v>
   <v>       0.00115741 </v>
   <v>       0.00115741 </v>
   <v>       0.00115741 </v>
   <v>       0.00115741 </v>
   <v>       0.00115741 </v>
   <v>       0.00115741 </v>
   <v>       0.00115741 </v>
   <v>       0.00115741 </v>
   <v>       0.00115741 </v>
   <v>       0.00115741 </v>
   <v>       0.00115741 </v>
   <v>       0.00115741 </v>
   <v>       0.00115741 </v>
   <v>       0.00115741 </v>
   <v>       0.00115741 </v>
   <v>       0.00115741 </v>
   <v>       0.00115741 </v>
   <v>       0.00115741 </v>
   <v>       0.00115741 </v>
   <v>       0.00115741 </v>
   <v>       0.00115741 </v>
   <v>       0.00115741 </v>
   <v>       0.00115741 </v>
   <v>       0.00115741 </v>
   <v>       0.00115741 </v>
   <v>       0.00115741 </v>
   <v>       0.00115741 </v>
   <v>       0.00115741 </v>
   <v>       0.00115741 </v>
   <v>       0.00115741 </v>
   <v>       0.00115741 </v>
   <v>       0.00115741 </v>
   <v>       0.00115741 </v>
   <v>       0.00115741 </v>
   <v>       0.00115741 </v>
   <v>       0.00115741 </v>
   <v>       0.00115741 </v>
   <v>       0.00115741 </v>
   <v>       0.00115741 </v>
   <v>       0.00115741 </v>
   <v>       0.00115741 </v>
   <v>       0.00115741 </v>
   <v>       0.00115741 </v>
   <v>       0.00115741 </v>
   <v>       0.00115741 </v>
   <v>       0.00115741 </v>
   <v>       0.00115741 </v>
   <v>       0.00115741 </v>
   <v>       0.00115741 </v>
   <v>       0.00115741 </v>
   <v>       0.00115741 </v>
   <v>       0.00115741 </v>
   <v>       0.00115741 </v>
   <v>       0.00115741 </v>
   <v>       0.00115741 </v>
   <v>       0.00115741 </v>
   <v>       0.00115741 </v>
   <v>       0.00115741 </v>
   <v>       0.00115741 </v>
   <v>       0.00115741 </v>
   <v>       0.00115741 </v>
   <v>       0.00115741 </v>
   <v>       0.00115741 </v>
   <v>       0.00115741 </v>
   <v>       0.00115741 </v>
   <v>       0.00115741 </v>
   <v>       0.00115741 </v>
   <v>       0.00115741 </v>
   <v>       0.00115741 </v>
   <v>       0.00115741 </v>
   <v>       0.00115741 </v>
   <v>       0.00115741 </v>
   <v>       0.00115741 </v>
   <v>       0.00115741 </v>
   <v>       0.00115741 </v>
   <v>       0.00115741 </v>
   <v>       0.00115741 </v>
   <v>       0.00115741 </v>
   <v>       0.00115741 </v>
   <v>       0.00115741 </v>
   <v>       0.00115741 </v>
   <v>       0.00115741 </v>
   <v>       0.00115741 </v>
   <v>       0.00115741 </v>
   <v>       0.00115741 </v>
   <v>       0.00115741 </v>
   <v>       0.00115741 </v>
   <v>       0.00115741 </v>
   <v>       0.00115741 </v>
   <v>       0.00115741 </v>
   <v>       0.00115741 </v>
   <v>       0.00115741 </v>
   <v>       0.00115741 </v>
   <v>       0.00115741 </v>
   <v>       0.00115741 </v>
   <v>       0.00115741 </v>
   <v>       0.00115741 </v>
   <v>       0.00115741 </v>
   <v>       0.00115741 </v>
   <v>       0.00115741 </v>
   <v>       0.00115741 </v>
   <v>       0.00115741 </v>
   <v>       0.00115741 </v>
   <v>       0.00115741 </v>
   <v>       0.00115741 </v>
   <v>       0.00115741 </v>
   <v>       0.00115741 </v>
   <v>       0.00115741 </v>
   <v>       0.00115741 </v>
   <v>       0.00115741 </v>
   <v>       0.00115741 </v>
   <v>       0.00115741 </v>
   <v>       0.00115741 </v>
   <v>       0.00115741 </v>
   <v>       0.00115741 </v>
   <v>       0.00115741 </v>
   <v>       0.00115741 </v>
   <v>       0.00115741 </v>
   <v>       0.00115741 </v>
   <v>       0.00115741 </v>
   <v>       0.00115741 </v>
   <v>       0.00115741 </v>
   <v>       0.00115741 </v>
   <v>       0.00115741 </v>
   <v>       0.00115741 </v>
   <v>       0.00115741 </v>
   <v>       0.00115741 </v>
   <v>       0.00115741 </v>
   <v>       0.00115741 </v>
   <v>       0.00115741 </v>
   <v>       0.00115741 </v>
   <v>       0.00115741 </v>
   <v>       0.00115741 </v>
   <v>       0.00115741 </v>
   <v>       0.00115741 </v>
   <v>       0.00115741 </v>
   <v>       0.00115741 </v>
   <v>       0.00115741 </v>
   <v>       0.00115741 </v>
   <v>       0.00115741 </v>
   <v>       0.00115741 </v>
   <v>       0.00115741 </v>
   <v>       0.00115741 </v>
   <v>       0.00115741 </v>
   <v>       0.00115741 </v>
   <v>       0.00115741 </v>
   <v>       0.00115741 </v>
   <v>       0.00115741 </v>
   <v>       0.00115741 </v>
   <v>       0.00115741 </v>
   <v>       0.00115741 </v>
   <v>       0.00115741 </v>
   <v>       0.00115741 </v>
   <v>       0.00115741 </v>
   <v>       0.00115741 </v>
   <v>       0.00115741 </v>
   <v>       0.00115741 </v>
   <v>       0.00115741 </v>
   <v>       0.00115741 </v>
   <v>       0.00115741 </v>
   <v>       0.00115741 </v>
   <v>       0.00115741 </v>
   <v>       0.00115741 </v>
   <v>       0.00115741 </v>
   <v>       0.00115741 </v>
   <v>       0.00115741 </v>
   <v>       0.00115741 </v>
   <v>       0.00115741 </v>
   <v>       0.00115741 </v>
   <v>       0.00115741 </v>
   <v>       0.00115741 </v>
   <v>       0.00115741 </v>
   <v>       0.00115741 </v>
   <v>       0.00115741 </v>
   <v>       0.00115741 </v>
   <v>       0.00115741 </v>
   <v>       0.00115741 </v>
   <v>       0.00115741 </v>
   <v>       0.00115741 </v>
   <v>       0.00115741 </v>
   <v>       0.00115741 </v>
   <v>       0.00115741 </v>
   <v>       0.00115741 </v>
   <v>       0.00115741 </v>
   <v>       0.00115741 </v>
   <v>       0.00115741 </v>
   <v>       0.00115741 </v>
   <v>       0.00115741 </v>
   <v>       0.00115741 </v>
   <v>       0.00115741 </v>
   <v>       0.00115741 </v>
   <v>       0.00115741 </v>
   <v>       0.00115741 </v>
   <v>       0.00115741 </v>
   <v>       0.00115741 </v>
   <v>       0.00115741 </v>
   <v>       0.00115741 </v>
   <v>       0.00115741 </v>
   <v>       0.00115741 </v>
   <v>       0.00115741 </v>
   <v>       0.00115741 </v>
   <v>       0.00115741 </v>
   <v>       0.00115741 </v>
   <v>       0.00115741 </v>
   <v>       0.00115741 </v>
   <v>       0.00115741 </v>
   <v>       0.00115741 </v>
   <v>       0.00115741 </v>
   <v>       0.00115741 </v>
   <v>       0.00115741 </v>
   <v>       0.00115741 </v>
   <v>       0.00115741 </v>
   <v>       0.00115741 </v>
   <v>       0.00115741 </v>
   <v>       0.00115741 </v>
   <v>       0.00115741 </v>
   <v>       0.00115741 </v>
   <v>       0.00115741 </v>
   <v>       0.00115741 </v>
   <v>       0.00115741 </v>
   <v>       0.00115741 </v>
   <v>       0.00115741 </v>
   <v>       0.00115741 </v>
   <v>       0.00115741 </v>
   <v>       0.00115741 </v>
   <v>       0.00115741 </v>
   <v>       0.00115741 </v>
   <v>       0.00115741 </v>
   <v>       0.00115741 </v>
   <v>       0.00115741 </v>
   <v>       0.00115741 </v>
   <v>       0.00115741 </v>
   <v>       0.00115741 </v>
   <v>       0.00115741 </v>
   <v>       0.00115741 </v>
   <v>       0.00115741 </v>
   <v>       0.00115741 </v>
   <v>       0.00115741 </v>
   <v>       0.00115741 </v>
   <v>       0.00115741 </v>
   <v>       0.00115741 </v>
   <v>       0.00115741 </v>
   <v>       0.00115741 </v>
   <v>       0.00115741 </v>
   <v>       0.00115741 </v>
   <v>       0.00115741 </v>
   <v>       0.00115741 </v>
   <v>       0.00115741 </v>
   <v>       0.00115741 </v>
   <v>       0.00115741 </v>
   <v>       0.00115741 </v>
   <v>       0.00115741 </v>
   <v>       0.00115741 </v>
   <v>       0.00115741 </v>
   <v>       0.00115741 </v>
   <v>       0.00115741 </v>
   <v>       0.00115741 </v>
   <v>       0.00115741 </v>
   <v>       0.00115741 </v>
   <v>       0.00115741 </v>
   <v>       0.00115741 </v>
   <v>       0.00115741 </v>
   <v>       0.00115741 </v>
   <v>       0.00115741 </v>
   <v>       0.00115741 </v>
   <v>       0.00115741 </v>
   <v>       0.00115741 </v>
   <v>       0.00115741 </v>
   <v>       0.00115741 </v>
   <v>       0.00115741 </v>
   <v>       0.00115741 </v>
   <v>       0.00115741 </v>
   <v>       0.00115741 </v>
   <v>       0.00115741 </v>
   <v>       0.00115741 </v>
   <v>       0.00115741 </v>
   <v>       0.00115741 </v>
   <v>       0.00115741 </v>
   <v>       0.00115741 </v>
   <v>       0.00115741 </v>
   <v>       0.00115741 </v>
   <v>       0.00115741 </v>
   <v>       0.00115741 </v>
   <v>       0.00115741 </v>
   <v>       0.00115741 </v>
   <v>       0.00115741 </v>
   <v>       0.00115741 </v>
   <v>       0.00115741 </v>
   <v>       0.00115741 </v>
   <v>       0.00115741 </v>
   <v>       0.00115741 </v>
   <v>       0.00115741 </v>
   <v>       0.00115741 </v>
   <v>       0.00115741 </v>
   <v>       0.00115741 </v>
   <v>       0.00115741 </v>
   <v>       0.00115741 </v>
   <v>       0.00115741 </v>
   <v>       0.00115741 </v>
   <v>       0.00115741 </v>
   <v>       0.00115741 </v>
   <v>       0.00115741 </v>
   <v>       0.00115741 </v>
   <v>       0.00115741 </v>
   <v>       0.00115741 </v>
   <v>       0.00115741 </v>
   <v>       0.00115741 </v>
   <v>       0.00115741 </v>
   <v>       0.00115741 </v>
   <v>       0.00115741 </v>
   <v>       0.00115741 </v>
   <v>       0.00115741 </v>
   <v>       0.00115741 </v>
   <v>       0.00115741 </v>
   <v>       0.00115741 </v>
   <v>       0.00115741 </v>
   <v>       0.00115741 </v>
   <v>       0.00115741 </v>
   <v>       0.00115741 </v>
   <v>       0.00115741 </v>
   <v>       0.00115741 </v>
   <v>       0.00115741 </v>
   <v>       0.00115741 </v>
   <v>       0.00115741 </v>
   <v>       0.00115741 </v>
   <v>       0.00115741 </v>
   <v>       0.00115741 </v>
   <v>       0.00115741 </v>
   <v>       0.00115741 </v>
   <v>       0.00115741 </v>
   <v>       0.00115741 </v>
   <v>       0.00115741 </v>
   <v>       0.00115741 </v>
   <v>       0.00115741 </v>
   <v>       0.00115741 </v>
   <v>       0.00115741 </v>
   <v>       0.00115741 </v>
   <v>       0.00115741 </v>
   <v>       0.00115741 </v>
   <v>       0.00115741 </v>
   <v>       0.00115741 </v>
   <v>       0.00115741 </v>
   <v>       0.00115741 </v>
   <v>       0.00115741 </v>
   <v>       0.00115741 </v>
   <v>       0.00115741 </v>
   <v>       0.00115741 </v>
   <v>       0.00115741 </v>
   <v>       0.00115741 </v>
   <v>       0.00115741 </v>
   <v>       0.00115741 </v>
   <v>       0.00115741 </v>
   <v>       0.00115741 </v>
   <v>       0.00115741 </v>
   <v>       0.00115741 </v>
   <v>       0.00115741 </v>
   <v>       0.00115741 </v>
   <v>       0.00115741 </v>
   <v>       0.00115741 </v>
   <v>       0.00115741 </v>
   <v>       0.00115741 </v>
   <v>       0.00115741 </v>
   <v>       0.00115741 </v>
   <v>       0.00115741 </v>
   <v>       0.00115741 </v>
   <v>       0.00115741 </v>
   <v>       0.00115741 </v>
   <v>       0.00115741 </v>
   <v>       0.00115741 </v>
   <v>       0.00115741 </v>
   <v>       0.00115741 </v>
   <v>       0.00115741 </v>
   <v>       0.00115741 </v>
   <v>       0.00115741 </v>
   <v>       0.00115741 </v>
   <v>       0.00115741 </v>
   <v>       0.00115741 </v>
   <v>       0.00115741 </v>
   <v>       0.00115741 </v>
   <v>       0.00115741 </v>
   <v>       0.00115741 </v>
   <v>       0.00115741 </v>
   <v>       0.00115741 </v>
   <v>       0.00115741 </v>
   <v>       0.00115741 </v>
   <v>       0.00115741 </v>
   <v>       0.00115741 </v>
   <v>       0.00115741 </v>
   <v>       0.00115741 </v>
   <v>       0.00115741 </v>
   <v>       0.00115741 </v>
   <v>       0.00115741 </v>
   <v>       0.00115741 </v>
   <v>       0.00115741 </v>
   <v>       0.00115741 </v>
   <v>       0.00115741 </v>
   <v>       0.00115741 </v>
   <v>       0.00057870 </v>
   <v>       0.00115741 </v>
   <v>       0.00115741 </v>
   <v>       0.00115741 </v>
   <v>       0.00115741 </v>
   <v>       0.00115741 </v>
   <v>       0.00057870 </v>
   <v>       0.00115741 </v>
   <v>       0.00115741 </v>
   <v>       0.00115741 </v>
   <v>       0.00115741 </v>
   <v>       0.00115741 </v>
   <v>       0.00115741 </v>
   <v>       0.00115741 </v>
   <v>       0.00115741 </v>
   <v>       0.00115741 </v>
   <v>       0.00115741 </v>
   <v>       0.00115741 </v>
[...]
       <r>   12.2933    0.0000 </r>
       <r>   12.2933    0.0000 </r>
      </set>
      <set comment="kpoint 866">
       <r>   -9.1325    1.0000 </r>
       <r>   -9.1325    1.0000 </r>
       <r>   -8.8508    1.0000 </r>
       <r>   -8.8508    1.0000 </r>
       <r>   -2.1326    1.0000 </r>
       <r>   -2.1326    1.0000 </r>
       <r>   -1.7114    1.0000 </r>
       <r>   -1.7114    1.0000 </r>
       <r>   -0.6758    1.0000 </r>
       <r>   -0.6758    1.0000 </r>
       <r>   -0.0419    1.0000 </r>
       <r>   -0.0419    1.0000 </r>
       <r>    0.8038    1.0000 </r>
       <r>    0.8038    1.0000 </r>
       <r>    1.4464    1.0000 </r>
       <r>    1.4464    1.0000 </r>
       <r>    2.6605    1.0000 </r>
       <r>    2.6605    1.0000 </r>
       <r>    5.3347    0.0000 </r>
       <r>    5.3347    0.0000 </r>
       <r>    5.8897    0.0000 </r>
       <r>    5.8897    0.0000 </r>
       <r>    6.4817    0.0000 </r>
       <r>    6.4817    0.0000 </r>
       <r>    7.5724    0.0000 </r>
       <r>    7.5724    0.0000 </r>
       <r>   10.2104    0.0000 </r>
       <r>   10.2104    0.0000 </r>
       <r>   11.6391    0.0000 </r>
       <r>   11.6391    0.0000 </r>
       <r>   12.6204    0.0000 </r>
       <r>   12.6205    0.0000 </r>
      </set>
      <set comment="kpoint 867">
       <r>   -9.1172    1.0000 </r>
       <r>   -9.1172    1.0000 </r>
       <r>   -8.8601    1.0000 </r>
       <r>   -8.8601    1.0000 </r>
       <r>   -2.4520    1.0000 </r>
       <r>   -2.4520    1.0000 </r>
       <r>   -1.6551    1.0000 </r>
       <r>   -1.6551    1.0000 </r>
       <r>   -0.8544    1.0000 </r>
       <r>   -0.8544    1.0000 </r>
       <r>   -0.0084    1.0000 </r>
       <r>   -0.0084    1.0000 </r>
       <r>    1.3316    1.0000 </r>
       <r>    1.3316    1.0000 </r>
       <r>    1.6661    1.0000 </r>
       <r>    1.6661    1.0000 </r>
       <r>    2.6500    1.0000 </r>
       <r>    2.6500    1.0000 </r>
       <r>    5.3612    0.0000 </r>
       <r>    5.3612    0.0000 </r>
       <r>    5.8573    0.0000 </r>
       <r>    5.8573    0.0000 </r>
       <r>    6.9933    0.0000 </r>
       <r>    6.9933    0.0000 </r>
       <r>    7.3056    0.0000 </r>
       <r>    7.3056    0.0000 </r>
       <r>    9.5894    0.0000 </r>
       <r>    9.5894    0.0000 </r>
       <r>   11.3494    0.0000 </r>
       <r>   11.3494    0.0000 </r>
       <r>   11.7998    0.0000 </r>
       <r>   11.7999    0.0000 </r>
      </set>
      <set comment="kpoint 868">
       <r>   -9.1095    1.0000 </r>
       <r>   -9.1095    1.0000 </r>
       <r>   -8.8647    1.0000 </r>
       <r>   -8.8647    1.0000 </r>
       <r>   -2.5889    1.0000 </r>
       <r>   -2.5889    1.0000 </r>
       <r>   -1.6243    1.0000 </r>
       <r>   -1.6243    1.0000 </r>
       <r>   -0.9107    1.0000 </r>
       <r>   -0.9107    1.0000 </r>
       <r>   -0.0028    1.0000 </r>
       <r>   -0.0028    1.0000 </r>
       <r>    1.2920    1.0000 </r>
       <r>    1.2920    1.0000 </r>
       <r>    2.1967    1.0000 </r>
       <r>    2.1967    1.0000 </r>
       <r>    2.5141    1.0000 </r>
       <r>    2.5141    1.0000 </r>
       <r>    5.3399    0.0000 </r>
       <r>    5.3399    0.0000 </r>
       <r>    5.8595    0.0000 </r>
       <r>    5.8595    0.0000 </r>
       <r>    7.0564    0.0000 </r>
       <r>    7.0564    0.0000 </r>
       <r>    7.4214    0.0000 </r>
       <r>    7.4214    0.0000 </r>
       <r>    9.3323    0.0000 </r>
       <r>    9.3323    0.0000 </r>
       <r>   11.0317    0.0000 </r>
       <r>   11.0317    0.0000 </r>
       <r>   11.4635    0.0000 </r>
       <r>   11.4635    0.0000 </r>
      </set>
     </set>
    </set>
   </array>
  </eigenvalues>
  <separator name="orbital magnetization" >
   <v name="MAGDIPOLOUT">      0.00000000      0.00000000      0.00000000</v>
  </separator>
  <dos>
   <i name="efermi">      3.56982984 </i>
   <total>
    <array>
     <dimension dim="1">gridpoints</dimension>
     <dimension dim="2">spin</dimension>
     <field>energy</field>
     <field>total</field>
     <field>integrated</field>
     <set>
      <set comment="spin 1">
       <r>   -12.1365     0.0000     0.0000 </r>
       <r>   -12.0473     0.0000     0.0000 </r>
       <r>   -11.9580     0.0000     0.0000 </r>
       <r>   -11.8688     0.0000     0.0000 </r>
       <r>   -11.7796     0.0000     0.0000 </r>
       <r>   -11.6904     0.0000     0.0000 </r>
       <r>   -11.6011     0.0000     0.0000 </r>
       <r>   -11.5119     0.0000     0.0000 </r>
       <r>   -11.4227     0.0000     0.0000 </r>
       <r>   -11.3335     0.0000     0.0000 </r>
       <r>   -11.2443     0.0000     0.0000 </r>
       <r>   -11.1550     0.0000     0.0000 </r>
       <r>   -11.0658     0.0000     0.0000 </r>
       <r>   -10.9766     0.0102     0.0009 </r>
       <r>   -10.8874     0.2557     0.0237 </r>
       <r>   -10.7981     1.2777     0.1377 </r>
       <r>   -10.7089     0.6506     0.1958 </r>
       <r>   -10.6197     1.0505     0.2895 </r>
       <r>   -10.5305     1.8238     0.4522 </r>
       <r>   -10.4412     0.8381     0.5270 </r>
       <r>   -10.3520     0.0839     0.5345 </r>
       <r>   -10.2628     2.4231     0.7507 </r>
       <r>   -10.1736     1.3670     0.8727 </r>
       <r>   -10.0843     1.4570     1.0027 </r>
       <r>    -9.9951     0.2878     1.0284 </r>
       <r>    -9.9059     0.8770     1.1066 </r>
       <r>    -9.8167     3.5598     1.4242 </r>
       <r>    -9.7274     1.2640     1.5370 </r>
       <r>    -9.6382     2.4980     1.7599 </r>
       <r>    -9.5490     2.8284     2.0123 </r>
       <r>    -9.4598     5.0356     2.4616 </r>
       <r>    -9.3705     6.7561     3.0644 </r>
       <r>    -9.2813     4.0051     3.4217 </r>
       <r>    -9.1921     4.6630     3.8378 </r>
       <r>    -9.1029    10.9330     4.8133 </r>
       <r>    -9.0136     6.8578     5.4252 </r>
       <r>    -8.9244     9.4220     6.2658 </r>
       <r>    -8.8352    10.1736     7.1736 </r>
       <r>    -8.7460     6.3734     7.7422 </r>
       <r>    -8.6567     2.7789     7.9902 </r>
       <r>    -8.5675     0.1100     8.0000 </r>
       <r>    -8.4783     0.0001     8.0000 </r>
       <r>    -8.3891     0.0000     8.0000 </r>
       <r>    -8.2998     0.0000     8.0000 </r>
       <r>    -8.2106     0.0000     8.0000 </r>
       <r>    -8.1214     0.0000     8.0000 </r>
       <r>    -8.0322     0.0000     8.0000 </r>
       <r>    -7.9429     0.0000     8.0000 </r>
       <r>    -7.8537     0.0000     8.0000 </r>
       <r>    -7.7645     0.0000     8.0000 </r>
       <r>    -7.6753     0.0000     8.0000 </r>
       <r>    -7.5860     0.0000     8.0000 </r>
       <r>    -7.4968     0.0000     8.0000 </r>
       <r>    -7.4076     0.0000     8.0000 </r>
       <r>    -7.3184     0.0000     8.0000 </r>
       <r>    -7.2291     0.0000     8.0000 </r>
       <r>    -7.1399     0.0000     8.0000 </r>
       <r>    -7.0507     0.0000     8.0000 </r>
       <r>    -6.9615     0.0000     8.0000 </r>
       <r>    -6.8722     0.0000     8.0000 </r>
       <r>    -6.7830     0.0000     8.0000 </r>
       <r>    -6.6938     0.0000     8.0000 </r>
       <r>    -6.6046     0.0000     8.0000 </r>
       <r>    -6.5153     0.0000     8.0000 </r>
       <r>    -6.4261     0.0000     8.0000 </r>
       <r>    -6.3369     0.0000     8.0000 </r>
       <r>    -6.2477     0.0000     8.0000 </r>
       <r>    -6.1584     0.0000     8.0000 </r>
       <r>    -6.0692     0.0000     8.0000 </r>
       <r>    -5.9800     0.0000     8.0000 </r>
       <r>    -5.8908     0.0000     8.0000 </r>
       <r>    -5.8015     0.0000     8.0000 </r>
       <r>    -5.7123     0.0000     8.0000 </r>
       <r>    -5.6231     0.0000     8.0000 </r>
       <r>    -5.5339     0.0000     8.0000 </r>
       <r>    -5.4446     0.0000     8.0000 </r>
       <r>    -5.3554     0.0000     8.0000 </r>
       <r>    -5.2662     0.0000     8.0000 </r>
       <r>    -5.1770     0.0000     8.0000 </r>
       <r>    -5.0877     0.0000     8.0000 </r>
       <r>    -4.9985     0.0000     8.0000 </r>
       <r>    -4.9093     0.0000     8.0000 </r>
       <r>    -4.8201     0.0000     8.0000 </r>
       <r>    -4.7309     0.0000     8.0000 </r>
       <r>    -4.6416     0.0000     8.0000 </r>
       <r>    -4.5524     0.0000     8.0000 </r>
       <r>    -4.4632     0.0000     8.0000 </r>
       <r>    -4.3740     0.0000     8.0000 </r>
       <r>    -4.2847     0.0000     8.0000 </r>
       <r>    -4.1955     0.0000     8.0000 </r>
       <r>    -4.1063     0.0000     8.0000 </r>
       <r>    -4.0171     0.0000     8.0000 </r>
       <r>    -3.9278     0.0000     8.0000 </r>
       <r>    -3.8386     0.0000     8.0000 </r>
       <r>    -3.7494     0.0000     8.0000 </r>
       <r>    -3.6602     0.0000     8.0000 </r>
       <r>    -3.5709     0.0000     8.0000 </r>
       <r>    -3.4817     0.0000     8.0000 </r>
       <r>    -3.3925     0.0000     8.0000 </r>
       <r>    -3.3033     0.0000     8.0000 </r>
       <r>    -3.2140     0.0000     8.0000 </r>
       <r>    -3.1248     0.0000     8.0000 </r>
       <r>    -3.0356     0.0000     8.0000 </r>
       <r>    -2.9464     0.0000     8.0000 </r>
       <r>    -2.8571     0.0000     8.0000 </r>
       <r>    -2.7679     0.0000     8.0000 </r>
       <r>    -2.6787     0.0066     8.0006 </r>
       <r>    -2.5895     0.4556     8.0412 </r>
       <r>    -2.5002     0.9268     8.1239 </r>
       <r>    -2.4110     4.4427     8.5203 </r>
       <r>    -2.3218     1.9122     8.6909 </r>
       <r>    -2.2326     2.0123     8.8705 </r>
       <r>    -2.1433     7.0915     9.5032 </r>
       <r>    -2.0541     7.8716    10.2056 </r>
       <r>    -1.9649     4.6552    10.6209 </r>
       <r>    -1.8757     8.3528    11.3662 </r>
       <r>    -1.7864     9.0722    12.1757 </r>
       <r>    -1.6972     7.9880    12.8884 </r>
       <r>    -1.6080     5.2484    13.3567 </r>
       <r>    -1.5188     0.7573    13.4242 </r>
       <r>    -1.4295     1.4848    13.5567 </r>
       <r>    -1.3403     1.6009    13.6996 </r>
       <r>    -1.2511     2.9311    13.9611 </r>
       <r>    -1.1619     2.8373    14.2142 </r>
       <r>    -1.0726     1.1138    14.3136 </r>
       <r>    -0.9834     1.3021    14.4298 </r>
       <r>    -0.8942     2.4192    14.6456 </r>
       <r>    -0.8050     5.5314    15.1392 </r>
       <r>    -0.7157     9.3326    15.9719 </r>
       <r>    -0.6265    14.1482    17.2343 </r>
       <r>    -0.5373     6.2237    17.7896 </r>
       <r>    -0.4481     6.2770    18.3496 </r>
       <r>    -0.3588     2.9249    18.6106 </r>
       <r>    -0.2696     0.6641    18.6699 </r>
       <r>    -0.1804     1.7177    18.8231 </r>
       <r>    -0.0912     5.9043    19.3499 </r>
       <r>    -0.0019    15.4303    20.7267 </r>
       <r>     0.0873    10.7474    21.6856 </r>
       <r>     0.1765     4.8603    22.1193 </r>
       <r>     0.2657     5.6126    22.6201 </r>
       <r>     0.3550     5.1639    23.0808 </r>
       <r>     0.4442     1.3127    23.1979 </r>
       <r>     0.5334     1.2811    23.3122 </r>
       <r>     0.6226     4.3775    23.7028 </r>
       <r>     0.7119     3.2927    23.9966 </r>
       <r>     0.8011     3.5057    24.3094 </r>
       <r>     0.8903     5.5786    24.8071 </r>
       <r>     0.9795     5.1453    25.2662 </r>
       <r>     1.0688     2.0175    25.4463 </r>
       <r>     1.1580     5.9986    25.9815 </r>
       <r>     1.2472     7.0619    26.6116 </r>
       <r>     1.3364     5.5273    27.1047 </r>
       <r>     1.4256     8.0659    27.8244 </r>
       <r>     1.5149     9.1531    28.6411 </r>
       <r>     1.6041     7.4435    29.3052 </r>
       <r>     1.6933     4.0739    29.6687 </r>
       <r>     1.7825     3.3284    29.9657 </r>
       <r>     1.8718     6.3136    30.5290 </r>
       <r>     1.9610     3.1806    30.8128 </r>
       <r>     2.0502     2.2581    31.0143 </r>
       <r>     2.1394     5.5929    31.5133 </r>
       <r>     2.2287     5.2373    31.9806 </r>
       <r>     2.3179     4.7878    32.4078 </r>
       <r>     2.4071     8.4149    33.1586 </r>
       <r>     2.4963     5.8523    33.6808 </r>
       <r>     2.5856     2.2693    33.8833 </r>
       <r>     2.6748     8.8856    34.6761 </r>
       <r>     2.7640     2.8751    34.9326 </r>
       <r>     2.8532     2.1420    35.1237 </r>
       <r>     2.9425     3.8407    35.4664 </r>
       <r>     3.0317     3.4105    35.7707 </r>
       <r>     3.1209     1.0304    35.8627 </r>
       <r>     3.2101     0.9100    35.9439 </r>
       <r>     3.2994     0.5324    35.9914 </r>
       <r>     3.3886     0.0931    35.9997 </r>
       <r>     3.4778     0.0037    36.0000 </r>
       <r>     3.5670     0.0000    36.0000 </r>
       <r>     3.6563     0.0000    36.0000 </r>
       <r>     3.7455     0.0000    36.0000 </r>
       <r>     3.8347     0.0000    36.0000 </r>
       <r>     3.9239     0.0000    36.0000 </r>
       <r>     4.0132     0.0000    36.0000 </r>
       <r>     4.1024     0.0000    36.0000 </r>
       <r>     4.1916     0.0000    36.0000 </r>
       <r>     4.2808     0.0000    36.0000 </r>
       <r>     4.3701     0.0000    36.0000 </r>
       <r>     4.4593     0.0000    36.0000 </r>
       <r>     4.5485     0.0000    36.0000 </r>
       <r>     4.6377     0.0000    36.0000 </r>
       <r>     4.7270     0.0079    36.0007 </r>
       <r>     4.8162     0.3741    36.0341 </r>
       <r>     4.9054     0.2585    36.0571 </r>
       <r>     4.9946     0.8357    36.1317 </r>
       <r>     5.0839     4.2534    36.5112 </r>
       <r>     5.1731     4.6056    36.9221 </r>
       <r>     5.2623     7.1274    37.5581 </r>
       <r>     5.3515    13.9408    38.8019 </r>
       <r>     5.4408     8.9413    39.5997 </r>
       <r>     5.5300     5.1854    40.0624 </r>
       <r>     5.6192     9.0925    40.8737 </r>
       <r>     5.7084    11.4580    41.8960 </r>
       <r>     5.7977     8.8670    42.6872 </r>
       <r>     5.8869    10.7588    43.6471 </r>
       <r>     5.9761     7.1607    44.2860 </r>
       <r>     6.0653     4.2792    44.6678 </r>
       <r>     6.1546     6.8968    45.2832 </r>
       <r>     6.2438     6.4344    45.8573 </r>
       <r>     6.3330     3.3887    46.1597 </r>
       <r>     6.4222     5.2720    46.6301 </r>
       <r>     6.5115     6.0357    47.1686 </r>
       <r>     6.6007     4.1873    47.5422 </r>
       <r>     6.6899     3.3022    47.8368 </r>
       <r>     6.7791     1.3032    47.9531 </r>
       <r>     6.8684     2.2683    48.1555 </r>
       <r>     6.9576     5.4553    48.6423 </r>
       <r>     7.0468     2.6665    48.8802 </r>
       <r>     7.1360     1.4681    49.0112 </r>
       <r>     7.2253     3.4906    49.3226 </r>
       <r>     7.3145     5.6597    49.8276 </r>
       <r>     7.4037     6.0102    50.3639 </r>
       <r>     7.4929     5.2018    50.8280 </r>
       <r>     7.5822     3.3652    51.1283 </r>
       <r>     7.6714     3.3663    51.4286 </r>
       <r>     7.7606     1.6999    51.5803 </r>
       <r>     7.8498     2.1693    51.7738 </r>
       <r>     7.9390     1.6420    51.9204 </r>
       <r>     8.0283     0.8141    51.9930 </r>
       <r>     8.1175     0.0785    52.0000 </r>
       <r>     8.2067     0.0001    52.0000 </r>
       <r>     8.2959     0.0000    52.0000 </r>
       <r>     8.3852     0.0000    52.0000 </r>
       <r>     8.4744     0.0000    52.0000 </r>
       <r>     8.5636     0.0000    52.0000 </r>
       <r>     8.6528     0.0000    52.0000 </r>
       <r>     8.7421     0.0000    52.0000 </r>
       <r>     8.8313     0.0000    52.0000 </r>
       <r>     8.9205     0.0000    52.0000 </r>
       <r>     9.0097     0.0013    52.0001 </r>
       <r>     9.0990     0.0430    52.0040 </r>
       <r>     9.1882     0.0616    52.0095 </r>
       <r>     9.2774     0.2469    52.0315 </r>
       <r>     9.3666     0.6326    52.0879 </r>
       <r>     9.4559     0.4388    52.1271 </r>
       <r>     9.5451     1.4218    52.2539 </r>
       <r>     9.6343     2.7265    52.4972 </r>
       <r>     9.7235     1.5053    52.6315 </r>
       <r>     9.8128     1.7980    52.7919 </r>
       <r>     9.9020     1.3957    52.9165 </r>
       <r>     9.9912     0.9421    53.0005 </r>
       <r>    10.0804     1.1102    53.0996 </r>
       <r>    10.1697     2.8754    53.3562 </r>
       <r>    10.2589     4.6842    53.7741 </r>
       <r>    10.3481     3.8782    54.1201 </r>
       <r>    10.4373     2.8724    54.3764 </r>
       <r>    10.5266     3.7361    54.7098 </r>
       <r>    10.6158     3.3436    55.0081 </r>
       <r>    10.7050     2.5546    55.2360 </r>
       <r>    10.7942     3.0168    55.5052 </r>
       <r>    10.8835     3.7371    55.8386 </r>
       <r>    10.9727     2.9600    56.1028 </r>
       <r>    11.0619     3.7794    56.4400 </r>
       <r>    11.1511     3.8947    56.7875 </r>
       <r>    11.2404     4.3978    57.1799 </r>
       <r>    11.3296     3.5920    57.5004 </r>
       <r>    11.4188     4.1200    57.8680 </r>
       <r>    11.5080     3.5489    58.1846 </r>
       <r>    11.5973     4.4820    58.5845 </r>
       <r>    11.6865     5.7372    59.0964 </r>
       <r>    11.7757     5.2013    59.5605 </r>
       <r>    11.8649     4.1353    59.9295 </r>
       <r>    11.9542     2.8453    60.1833 </r>
       <r>    12.0434     3.1086    60.4607 </r>
       <r>    12.1326     3.6426    60.7857 </r>
       <r>    12.2218     3.5372    61.1013 </r>
       <r>    12.3111     3.3396    61.3993 </r>
       <r>    12.4003     2.7013    61.6403 </r>
       <r>    12.4895     2.5706    61.8697 </r>
       <r>    12.5787     3.9994    62.2265 </r>
       <r>    12.6680     3.7950    62.5651 </r>
       <r>    12.7572     3.8503    62.9087 </r>
       <r>    12.8464     3.4615    63.2175 </r>
       <r>    12.9356     3.6798    63.5459 </r>
       <r>    13.0249     0.8260    63.6196 </r>
       <r>    13.1141     1.1322    63.7206 </r>
       <r>    13.2033     1.0560    63.8148 </r>
       <r>    13.2925     0.6956    63.8769 </r>
       <r>    13.3818     1.0928    63.9744 </r>
       <r>    13.4710     0.2843    63.9997 </r>
       <r>    13.5602     0.0030    64.0000 </r>
       <r>    13.6494     0.0000    64.0000 </r>
       <r>    13.7387     0.0000    64.0000 </r>
       <r>    13.8279     0.0000    64.0000 </r>
       <r>    13.9171     0.0000    64.0000 </r>
       <r>    14.0063     0.0000    64.0000 </r>
       <r>    14.0956     0.0000    64.0000 </r>
       <r>    14.1848     0.0000    64.0000 </r>
       <r>    14.2740     0.0000    64.0000 </r>
       <r>    14.3632     0.0000    64.0000 </r>
       <r>    14.4524     0.0000    64.0000 </r>
       <r>    14.5417     0.0000    64.0000 </r>
       <r>    14.6309     0.0000    64.0000 </r>
      </set>
     </set>
    </array>
   </total>
  </dos>
 </calculation>
 <structure name="finalpos" >
  <crystal>
   <varray name="basis" >
    <v>       3.18531719       0.00000000       0.00000000 </v>
    <v>      -1.59265860       2.75856491       0.00000000 </v>
    <v>       0.00000000       0.00000000      14.86003508 </v>
   </varray>
   <i name="volume">    130.57370526 </i>
   <varray name="rec_basis" >
    <v>       0.31394048       0.18125366       0.00000000 </v>
    <v>       0.00000000       0.36250733       0.00000000 </v>
    <v>       0.00000000       0.00000000       0.06729459 </v>
   </varray>
  </crystal>
  <varray name="positions" >
   <v>       0.66666700       0.33333300       0.25000000 </v>
   <v>       0.33333300       0.66666700       0.75000000 </v>
   <v>       0.33333300       0.66666700       0.14490265 </v>
   <v>       0.66666700       0.33333300       0.64490265 </v>
   <v>       0.33333300       0.66666700       0.35509735 </v>
   <v>       0.66666700       0.33333300       0.85509735 </v>
  </varray>
 </structure>
</modeling>
