<?xml version="1.0" encoding="ISO-8859-1"?>
<modeling>
 <generator>
  <i name="program" type="string">vasp </i>
  <i name="version" type="string">5.3.5  </i>
  <i name="subversion" type="string">31Mar14 (build Mar 18 2017 11:34:20) complex                          parallel </i>
  <i name="platform" type="string">LinuxIFC </i>
  <i name="date" type="string">2018 05 01 </i>
  <i name="time" type="string">10:34:40 </i>
 </generator>
 <incar>
  <i type="string" name="SYSTEM"> MoS2</i>
  <i type="string" name="PREC">accurate</i>
  <i type="string" name="ALGO"> Fast</i>
  <i type="logical" name="ADDGRID"> T  </i>
  <i type="int" name="IBRION">     8</i>
  <i name="EDIFF">      0.00001000</i>
  <i type="int" name="NSW">     1</i>
  <i type="int" name="ISIF">     2</i>
  <i type="int" name="ISYM">     0</i>
  <i name="ENCUT">    600.00000000</i>
  <i name="POTIM">      0.50000000</i>
  <i type="logical" name="LREAL"> F  </i>
  <i type="int" name="ISMEAR">     0</i>
  <i name="SIGMA">      0.05000000</i>
  <i type="int" name="NWRITE">     3</i>
  <i type="logical" name="LWAVE"> F  </i>
  <i type="logical" name="LCHARG"> F  </i>
  <i type="logical" name="LEPSILON"> T  </i>
 </incar>
 <kpoints>
  <generation param="Gamma">
   <v type="int" name="divisions">      12       12        1 </v>
   <v name="usershift">      0.00000000       0.00000000       0.00000000 </v>
   <v name="genvec1">      0.08333333      -0.00000000       0.00000000 </v>
   <v name="genvec2">      0.00000000       0.08333333       0.00000000 </v>
   <v name="genvec3">      0.00000000       0.00000000       1.00000000 </v>
   <v name="shift">      0.00000000       0.00000000       0.00000000 </v>
  </generation>
  <varray name="kpointlist" >
   <v>       0.00000000       0.00000000       0.00000000 </v>
   <v>       0.08333333       0.00000000       0.00000000 </v>
   <v>       0.16666667       0.00000000       0.00000000 </v>
   <v>       0.25000000       0.00000000       0.00000000 </v>
   <v>       0.33333333       0.00000000       0.00000000 </v>
   <v>       0.41666667       0.00000000       0.00000000 </v>
   <v>       0.50000000       0.00000000       0.00000000 </v>
   <v>       0.00000000       0.08333333       0.00000000 </v>
   <v>       0.08333333       0.08333333       0.00000000 </v>
   <v>       0.16666667       0.08333333       0.00000000 </v>
   <v>       0.25000000       0.08333333       0.00000000 </v>
   <v>       0.33333333       0.08333333       0.00000000 </v>
   <v>       0.41666667       0.08333333       0.00000000 </v>
   <v>       0.50000000       0.08333333       0.00000000 </v>
   <v>      -0.41666667       0.08333333       0.00000000 </v>
   <v>      -0.33333333       0.08333333       0.00000000 </v>
   <v>      -0.25000000       0.08333333       0.00000000 </v>
   <v>      -0.16666667       0.08333333       0.00000000 </v>
   <v>      -0.08333333       0.08333333       0.00000000 </v>
   <v>       0.00000000       0.16666667       0.00000000 </v>
   <v>       0.08333333       0.16666667       0.00000000 </v>
   <v>       0.16666667       0.16666667       0.00000000 </v>
   <v>       0.25000000       0.16666667       0.00000000 </v>
   <v>       0.33333333       0.16666667       0.00000000 </v>
   <v>       0.41666667       0.16666667       0.00000000 </v>
   <v>       0.50000000       0.16666667       0.00000000 </v>
   <v>      -0.41666667       0.16666667       0.00000000 </v>
   <v>      -0.33333333       0.16666667       0.00000000 </v>
   <v>      -0.25000000       0.16666667       0.00000000 </v>
   <v>      -0.16666667       0.16666667       0.00000000 </v>
   <v>      -0.08333333       0.16666667       0.00000000 </v>
   <v>       0.00000000       0.25000000       0.00000000 </v>
   <v>       0.08333333       0.25000000       0.00000000 </v>
   <v>       0.16666667       0.25000000       0.00000000 </v>
   <v>       0.25000000       0.25000000       0.00000000 </v>
   <v>       0.33333333       0.25000000       0.00000000 </v>
   <v>       0.41666667       0.25000000       0.00000000 </v>
   <v>       0.50000000       0.25000000       0.00000000 </v>
   <v>      -0.41666667       0.25000000       0.00000000 </v>
   <v>      -0.33333333       0.25000000       0.00000000 </v>
   <v>      -0.25000000       0.25000000       0.00000000 </v>
   <v>      -0.16666667       0.25000000       0.00000000 </v>
   <v>      -0.08333333       0.25000000       0.00000000 </v>
   <v>       0.00000000       0.33333333       0.00000000 </v>
   <v>       0.08333333       0.33333333       0.00000000 </v>
   <v>       0.16666667       0.33333333       0.00000000 </v>
   <v>       0.25000000       0.33333333       0.00000000 </v>
   <v>       0.33333333       0.33333333       0.00000000 </v>
   <v>       0.41666667       0.33333333       0.00000000 </v>
   <v>       0.50000000       0.33333333       0.00000000 </v>
   <v>      -0.41666667       0.33333333       0.00000000 </v>
   <v>      -0.33333333       0.33333333       0.00000000 </v>
   <v>      -0.25000000       0.33333333       0.00000000 </v>
   <v>      -0.16666667       0.33333333       0.00000000 </v>
   <v>      -0.08333333       0.33333333       0.00000000 </v>
   <v>       0.00000000       0.41666667       0.00000000 </v>
   <v>       0.08333333       0.41666667       0.00000000 </v>
   <v>       0.16666667       0.41666667       0.00000000 </v>
   <v>       0.25000000       0.41666667       0.00000000 </v>
   <v>       0.33333333       0.41666667       0.00000000 </v>
   <v>       0.41666667       0.41666667       0.00000000 </v>
   <v>       0.50000000       0.41666667       0.00000000 </v>
   <v>      -0.41666667       0.41666667       0.00000000 </v>
   <v>      -0.33333333       0.41666667       0.00000000 </v>
   <v>      -0.25000000       0.41666667       0.00000000 </v>
   <v>      -0.16666667       0.41666667       0.00000000 </v>
   <v>      -0.08333333       0.41666667       0.00000000 </v>
   <v>       0.00000000       0.50000000       0.00000000 </v>
   <v>       0.08333333       0.50000000       0.00000000 </v>
   <v>       0.16666667       0.50000000       0.00000000 </v>
   <v>       0.25000000       0.50000000       0.00000000 </v>
   <v>       0.33333333       0.50000000       0.00000000 </v>
   <v>       0.41666667       0.50000000       0.00000000 </v>
   <v>       0.50000000       0.50000000       0.00000000 </v>
  </varray>
  <varray name="weights" >
   <v>       0.00694444 </v>
   <v>       0.01388889 </v>
   <v>       0.01388889 </v>
   <v>       0.01388889 </v>
   <v>       0.01388889 </v>
   <v>       0.01388889 </v>
   <v>       0.00694444 </v>
   <v>       0.01388889 </v>
   <v>       0.01388889 </v>
   <v>       0.01388889 </v>
   <v>       0.01388889 </v>
   <v>       0.01388889 </v>
   <v>       0.01388889 </v>
   <v>       0.01388889 </v>
   <v>       0.01388889 </v>
   <v>       0.01388889 </v>
   <v>       0.01388889 </v>
   <v>       0.01388889 </v>
   <v>       0.01388889 </v>
   <v>       0.01388889 </v>
   <v>       0.01388889 </v>
   <v>       0.01388889 </v>
   <v>       0.01388889 </v>
   <v>       0.01388889 </v>
   <v>       0.01388889 </v>
   <v>       0.01388889 </v>
   <v>       0.01388889 </v>
   <v>       0.01388889 </v>
   <v>       0.01388889 </v>
   <v>       0.01388889 </v>
   <v>       0.01388889 </v>
   <v>       0.01388889 </v>
   <v>       0.01388889 </v>
   <v>       0.01388889 </v>
   <v>       0.01388889 </v>
   <v>       0.01388889 </v>
   <v>       0.01388889 </v>
   <v>       0.01388889 </v>
   <v>       0.01388889 </v>
   <v>       0.01388889 </v>
   <v>       0.01388889 </v>
   <v>       0.01388889 </v>
   <v>       0.01388889 </v>
   <v>       0.01388889 </v>
   <v>       0.01388889 </v>
   <v>       0.01388889 </v>
   <v>       0.01388889 </v>
   <v>       0.01388889 </v>
   <v>       0.01388889 </v>
   <v>       0.01388889 </v>
   <v>       0.01388889 </v>
   <v>       0.01388889 </v>
   <v>       0.01388889 </v>
   <v>       0.01388889 </v>
   <v>       0.01388889 </v>
   <v>       0.01388889 </v>
   <v>       0.01388889 </v>
   <v>       0.01388889 </v>
   <v>       0.01388889 </v>
   <v>       0.01388889 </v>
   <v>       0.01388889 </v>
   <v>       0.01388889 </v>
   <v>       0.01388889 </v>
   <v>       0.01388889 </v>
   <v>       0.01388889 </v>
   <v>       0.01388889 </v>
   <v>       0.01388889 </v>
   <v>       0.00694444 </v>
   <v>       0.01388889 </v>
   <v>       0.01388889 </v>
   <v>       0.01388889 </v>
   <v>       0.01388889 </v>
   <v>       0.01388889 </v>
   <v>       0.00694444 </v>
  </varray>
 </kpoints>
 <parameters>
  <separator name="general" >
   <i type="string" name="SYSTEM">MoS2</i>
   <i type="logical" name="LCOMPAT"> F  </i>
  </separator>
  <separator name="electronic" >
   <i type="string" name="PREC">accura</i>
   <i name="ENMAX">    600.00000000</i>
   <i name="ENAUG">    345.27800000</i>
   <i name="EDIFF">      0.00001000</i>
   <i type="int" name="IALGO">    68</i>
   <i type="int" name="IWAVPR">    11</i>
   <i type="int" name="NBANDS">    32</i>
   <i name="NELECT">     36.00000000</i>
   <i type="int" name="TURBO">     0</i>
   <i type="int" name="IRESTART">     0</i>
   <i type="int" name="NREBOOT">     0</i>
   <i type="int" name="NMIN">     0</i>
   <i name="EREF">      0.00000000</i>
   <separator name="electronic smearing" >
    <i type="int" name="ISMEAR">     0</i>
    <i name="SIGMA">      0.05000000</i>
    <i name="KSPACING">      0.50000000</i>
    <i type="logical" name="KGAMMA"> T  </i>
   </separator>
   <separator name="electronic projectors" >
    <i type="logical" name="LREAL"> F  </i>
    <v name="ROPT">      0.00000000      0.00000000</v>
    <i type="int" name="LMAXPAW">  -100</i>
    <i type="int" name="LMAXMIX">     2</i>
    <i type="logical" name="NLSPLINE"> F  </i>
   </separator>
   <separator name="electronic startup" >
    <i type="int" name="ISTART">     0</i>
    <i type="int" name="ICHARG">     2</i>
    <i type="int" name="INIWAV">     1</i>
   </separator>
   <separator name="electronic spin" >
    <i type="int" name="ISPIN">     1</i>
    <i type="logical" name="LNONCOLLINEAR"> F  </i>
    <v name="MAGMOM">      1.00000000      1.00000000      1.00000000      1.00000000      1.00000000      1.00000000</v>
    <i name="NUPDOWN">     -1.00000000</i>
    <i type="logical" name="LSORBIT"> F  </i>
    <v name="SAXIS">      0.00000000      0.00000000      1.00000000</v>
    <i type="logical" name="LSPIRAL"> F  </i>
    <v name="QSPIRAL">      0.00000000      0.00000000      0.00000000</v>
    <i type="logical" name="LZEROZ"> F  </i>
   </separator>
   <separator name="electronic exchange-correlation" >
    <i type="logical" name="LASPH"> F  </i>
    <i type="logical" name="LMETAGGA"> F  </i>
   </separator>
   <separator name="electronic convergence" >
    <i type="int" name="NELM">    60</i>
    <i type="int" name="NELMDL">    -5</i>
    <i type="int" name="NELMIN">     2</i>
    <i name="ENINI">    600.00000000</i>
    <separator name="electronic convergence detail" >
     <i type="logical" name="LDIAG"> T  </i>
     <i type="logical" name="LSUBROT"> F  </i>
     <i name="WEIMIN">      0.00100000</i>
     <i name="EBREAK">      0.00000008</i>
     <i name="DEPER">      0.30000000</i>
     <i type="int" name="NRMM">     4</i>
     <i name="TIME">      0.40000000</i>
    </separator>
   </separator>
   <separator name="electronic mixer" >
    <i name="AMIX">      0.40000000</i>
    <i name="BMIX">      1.00000000</i>
    <i name="AMIN">      0.10000000</i>
    <i name="AMIX_MAG">      1.60000000</i>
    <i name="BMIX_MAG">      1.00000000</i>
    <separator name="electronic mixer details" >
     <i type="int" name="IMIX">     4</i>
     <i type="int" name="MAXMIX">   -45</i>
     <i name="WC">    100.00000000</i>
     <i type="int" name="INIMIX">     1</i>
     <i type="int" name="MIXPRE">     1</i>
     <i type="int" name="MREMOVE">     5</i>
    </separator>
   </separator>
   <separator name="electronic dipolcorrection" >
    <i type="logical" name="LDIPOL"> F  </i>
    <i type="logical" name="LMONO"> F  </i>
    <i type="int" name="IDIPOL">     0</i>
    <i name="EPSILON">      1.00000000</i>
    <v name="DIPOL">   -100.00000000   -100.00000000   -100.00000000</v>
    <i name="EFIELD">      0.00000000</i>
   </separator>
  </separator>
  <separator name="grids" >
   <i type="int" name="NGX">    28</i>
   <i type="int" name="NGY">    28</i>
   <i type="int" name="NGZ">   120</i>
   <i type="int" name="NGXF">    56</i>
   <i type="int" name="NGYF">    56</i>
   <i type="int" name="NGZF">   240</i>
   <i type="logical" name="ADDGRID"> T  </i>
  </separator>
  <separator name="ionic" >
   <i type="int" name="NSW">     1</i>
   <i type="int" name="IBRION">     8</i>
   <i type="int" name="ISIF">     2</i>
   <i name="PSTRESS">      0.00000000</i>
   <i name="EDIFFG">      0.00010000</i>
   <i type="int" name="NFREE">     0</i>
   <i name="POTIM">      0.50000000</i>
   <i name="SMASS">     -3.00000000</i>
   <i name="SCALEE">      1.00000000</i>
  </separator>
  <separator name="ionic md" >
   <i name="TEBEG">      0.00010000</i>
   <i name="TEEND">      0.00010000</i>
   <i type="int" name="NBLOCK">     1</i>
   <i type="int" name="KBLOCK">     1</i>
   <i type="int" name="NPACO">   256</i>
   <i name="APACO">     16.00000000</i>
  </separator>
  <separator name="symmetry" >
   <i type="int" name="ISYM">     0</i>
   <i name="SYMPREC">      0.00001000</i>
  </separator>
  <separator name="dos" >
   <i type="logical" name="LORBIT"> F  </i>
   <v name="RWIGS">     -1.00000000     -1.00000000</v>
   <i type="int" name="NEDOS">   301</i>
   <i name="EMIN">     10.00000000</i>
   <i name="EMAX">    -10.00000000</i>
   <i name="EFERMI">      0.00000000</i>
  </separator>
  <separator name="writing" >
   <i type="int" name="NWRITE">     3</i>
   <i type="logical" name="LWAVE"> F  </i>
   <i type="logical" name="LCHARG"> F  </i>
   <i type="logical" name="LPARD"> F  </i>
   <i type="logical" name="LVTOT"> F  </i>
   <i type="logical" name="LVHAR"> F  </i>
   <i type="logical" name="LELF"> F  </i>
   <i type="logical" name="LOPTICS"> F  </i>
   <v name="STM">      0.00000000      0.00000000      0.00000000      0.00000000      0.00000000      0.00000000      0.00000000</v>
  </separator>
  <separator name="performance" >
   <i type="int" name="NPAR">    16</i>
   <i type="int" name="NSIM">     4</i>
   <i type="int" name="NBLK">    -1</i>
   <i type="logical" name="LPLANE"> T  </i>
   <i type="logical" name="LSCALAPACK"> T  </i>
   <i type="logical" name="LSCAAWARE"> F  </i>
   <i type="logical" name="LSCALU"> F  </i>
   <i type="logical" name="LASYNC"> F  </i>
   <i type="logical" name="LORBITALREAL"> F  </i>
  </separator>
  <separator name="miscellaneous" >
   <i type="int" name="IDIOT">     3</i>
   <i type="logical" name="LMUSIC"> F  </i>
   <v name="POMASS">     95.94000000     32.06600000</v>
   <v name="DARWINR">      0.00000000      0.00000000</v>
   <v name="DARWINV">      1.00000000      1.00000000</v>
   <i type="logical" name="LCORR"> T  </i>
  </separator>
  <i type="logical" name="GGA_COMPAT"> T  </i>
  <i type="logical" name="LBERRY"> F  </i>
  <i type="int" name="ICORELEVEL">     0</i>
  <i type="logical" name="LDAU"> F  </i>
  <i type="int" name="I_CONSTRAINED_M">     0</i>
  <separator name="electronic exchange-correlation" >
   <i type="string" name="GGA">--</i>
   <i type="int" name="VOSKOWN">     0</i>
   <i type="logical" name="LHFCALC"> F  </i>
   <i type="string" name="PRECFOCK"></i>
   <i type="logical" name="LSYMGRAD"> F  </i>
   <i type="logical" name="LHFONE"> F  </i>
   <i type="logical" name="LRHFCALC"> F  </i>
   <i type="logical" name="LTHOMAS"> F  </i>
   <i type="logical" name="LMODELHF"> F  </i>
   <i name="ENCUT4O">     -1.00000000</i>
   <i type="int" name="EXXOEP">     0</i>
   <i type="int" name="FOURORBIT">     0</i>
   <i name="AEXX">      0.00000000</i>
   <i name="HFALPHA">      0.00000000</i>
   <i name="MCALPHA">      0.00000000</i>
   <i name="ALDAX">      1.00000000</i>
   <i name="AGGAX">      1.00000000</i>
   <i name="ALDAC">      1.00000000</i>
   <i name="AGGAC">      1.00000000</i>
   <i type="int" name="NKREDX">     1</i>
   <i type="int" name="NKREDY">     1</i>
   <i type="int" name="NKREDZ">     1</i>
   <i type="logical" name="SHIFTRED"> F  </i>
   <i type="logical" name="ODDONLY"> F  </i>
   <i type="logical" name="EVENONLY"> F  </i>
   <i type="int" name="LMAXFOCK">     0</i>
   <i type="int" name="NMAXFOCKAE">     0</i>
   <i type="logical" name="LFOCKAEDFT"> F  </i>
   <i name="HFSCREEN">      0.00000000</i>
   <i name="HFSCREENC">      0.00000000</i>
   <i type="int" name="NBANDSGWLOW">     0</i>
  </separator>
  <separator name="vdW DFT" >
   <i type="logical" name="LUSE_VDW"> F  </i>
   <i name="Zab_VDW">     -0.84910000</i>
   <i name="PARAM1">      0.12340000</i>
   <i name="PARAM2">      1.00000000</i>
   <i name="PARAM3">      0.00000000</i>
  </separator>
  <separator name="model GW" >
   <i type="int" name="MODEL_GW">     0</i>
   <i name="MODEL_EPS0">     13.04965777</i>
   <i name="MODEL_ALPHA">      1.00000000</i>
  </separator>
  <separator name="linear response parameters" >
   <i type="logical" name="LEPSILON"> T  </i>
   <i type="logical" name="LRPA"> F  </i>
   <i type="logical" name="LNABLA"> F  </i>
   <i type="logical" name="LVEL"> F  </i>
   <i type="int" name="KINTER">     0</i>
   <i name="CSHIFT">      0.10000000</i>
   <i name="OMEGAMAX">     -1.00000000</i>
   <i name="DEG_THRESHOLD">      0.00200000</i>
  </separator>
  <separator name="orbital magnetization" >
   <i type="logical" name="NUCIND"> F  </i>
   <v name="MAGPOS">      0.00000000      0.00000000      0.00000000</v>
   <i type="logical" name="LNICSALL"> T  </i>
   <i type="logical" name="ORBITALMAG"> F  </i>
   <i type="logical" name="LMAGBLOCH"> F  </i>
   <i type="logical" name="LCHIMAG"> F  </i>
   <i type="logical" name="LGAUGE"> T  </i>
   <i type="int" name="MAGATOM">     0</i>
   <v name="MAGDIPOL">      0.00000000      0.00000000      0.00000000</v>
   <v name="AVECCONST">      0.00000000      0.00000000      0.00000000</v>
  </separator>
  <separator name="response functions" >
   <i type="logical" name="LADDER"> F  </i>
   <i type="logical" name="LFXC"> F  </i>
   <i type="logical" name="LHARTREE"> T  </i>
   <i type="int" name="IBSE">     0</i>
   <i type="logical" name="LTCTE"> F  </i>
   <i type="logical" name="LTETE"> F  </i>
   <i type="logical" name="LTRIPLET"> F  </i>
   <i type="logical" name="LFXCEPS"> F  </i>
   <i type="logical" name="LFXHEG"> F  </i>
   <i type="logical" name="L2ORDER"> F  </i>
   <i type="logical" name="LUSEW"> F  </i>
   <i name="ENCUTGW">     -2.00000000</i>
   <i name="ENCUTGWSOFT">     -2.00000000</i>
   <i name="ENCUTLF">     -1.00000000</i>
   <i type="int" name="LMAXMP2">    -1</i>
   <i name="SCISSOR">      0.00000000</i>
   <i type="int" name="NOMEGA">     0</i>
   <i type="int" name="NOMEGAR">     0</i>
   <i type="int" name="NBANDSGW">    -1</i>
   <i type="int" name="NBANDSO">    -1</i>
   <i type="int" name="NBANDSV">    -1</i>
   <i type="int" name="NELM">     1</i>
   <i type="int" name="DIM">     3</i>
   <i type="int" name="ANTIRES">     0</i>
   <i name="OMEGAMAX">    -30.00000000</i>
   <i name="OMEGAMIN">    -30.00000000</i>
   <i name="OMEGATL">   -200.00000000</i>
   <i type="int" name="OMEGAGRID">     0</i>
   <i name="CSHIFT">     -0.10000000</i>
   <i type="logical" name="SELFENERGY"> F  </i>
   <i type="logical" name="LSPECTRAL"> F  </i>
   <i type="logical" name="ODDONLYGW"> F  </i>
   <i type="logical" name="EVENONLYGW"> F  </i>
   <i type="int" name="NKREDLFX">     1</i>
   <i type="int" name="NKREDLFY">     1</i>
   <i type="int" name="NKREDLFZ">     1</i>
   <i type="int" name="MAXMEM">  1800</i>
   <i type="int" name="TELESCOPE">     0</i>
   <i type="int" name="TAUPAR">     1</i>
  </separator>
  <separator name="External order field" >
   <i name="OFIELD_KAPPA">      0.00000000</i>
   <v name="OFIELD_K">      0.00000000      0.00000000      0.00000000</v>
   <i name="OFIELD_Q6_NEAR">      0.00000000</i>
   <i name="OFIELD_Q6_FAR">      0.00000000</i>
   <i name="OFIELD_A">      0.00000000</i>
  </separator>
 </parameters>
 <atominfo>
  <atoms>       6 </atoms>
  <types>       2 </types>
  <array name="atoms" >
   <dimension dim="1">ion</dimension>
   <field type="string">element</field>
   <field type="int">atomtype</field>
   <set>
    <rc><c>Mo</c><c>   1</c></rc>
    <rc><c>Mo</c><c>   1</c></rc>
    <rc><c>S </c><c>   2</c></rc>
    <rc><c>S </c><c>   2</c></rc>
    <rc><c>S </c><c>   2</c></rc>
    <rc><c>S </c><c>   2</c></rc>
   </set>
  </array>
  <array name="atomtypes" >
   <dimension dim="1">type</dimension>
   <field type="int">atomspertype</field>
   <field type="string">element</field>
   <field>mass</field>
   <field>valence</field>
   <field type="string">pseudopotential</field>
   <set>
    <rc><c>   2</c><c>Mo</c><c>     95.94000000</c><c>      6.00000000</c><c>  PAW_PBE Mo 08Apr2002                  </c></rc>
    <rc><c>   4</c><c>S </c><c>     32.06600000</c><c>      6.00000000</c><c>  PAW_PBE S 06Sep2000                   </c></rc>
   </set>
  </array>
 </atominfo>
 <structure name="initialpos" >
  <crystal>
   <varray name="basis" >
    <v>       3.18301609       0.00000000       0.00000000 </v>
    <v>      -1.59150805       2.75657210       0.00000000 </v>
    <v>       0.00000000       0.00000000      14.87273815 </v>
   </varray>
   <i name="volume">    130.49657774 </i>
   <varray name="rec_basis" >
    <v>       0.31416743       0.18138470       0.00000000 </v>
    <v>       0.00000000       0.36276940       0.00000000 </v>
    <v>       0.00000000       0.00000000       0.06723711 </v>
   </varray>
  </crystal>
  <varray name="positions" >
   <v>       0.66666700       0.33333300       0.25000000 </v>
   <v>       0.33333300       0.66666700       0.75000000 </v>
   <v>       0.33333300       0.66666700       0.14485922 </v>
   <v>       0.66666700       0.33333300       0.64485922 </v>
   <v>       0.33333300       0.66666700       0.35514078 </v>
   <v>       0.66666700       0.33333300       0.85514078 </v>
  </varray>
 </structure>
 <calculation>
  <scstep>
   <time name="dav">    2.23    2.23</time>
   <time name="total">    2.35    2.38</time>
   <energy>
    <i name="alphaZ">     90.88146191 </i>
    <i name="ewald">  -1146.92748245 </i>
    <i name="hartreedc">   -536.43484778 </i>
    <i name="XCdc">    -72.52144997 </i>
    <i name="pawpsdc">   1401.10264413 </i>
    <i name="pawaedc">  -1246.00898674 </i>
    <i name="eentropy">     -0.00303760 </i>
    <i name="bandstr">    156.11724165 </i>
    <i name="atom">   1542.32269226 </i>
    <i name="e_fr_energy">    188.52823542 </i>
    <i name="e_wo_entrp">    188.53127301 </i>
    <i name="e_0_energy">    188.52975422 </i>
   </energy>
  </scstep>
  <scstep>
   <time name="dav">    2.44    2.44</time>
   <time name="total">    2.49    2.49</time>
   <energy>
    <i name="e_fr_energy">    -33.76713256 </i>
    <i name="e_wo_entrp">    -33.76713256 </i>
    <i name="e_0_energy">    -33.76713256 </i>
   </energy>
  </scstep>
  <scstep>
   <time name="dav">    2.65    2.74</time>
   <time name="total">    2.70    2.79</time>
   <energy>
    <i name="e_fr_energy">    -46.60464146 </i>
    <i name="e_wo_entrp">    -46.60464146 </i>
    <i name="e_0_energy">    -46.60464146 </i>
   </energy>
  </scstep>
  <scstep>
   <time name="dav">    2.60    2.60</time>
   <time name="total">    2.65    2.66</time>
   <energy>
    <i name="e_fr_energy">    -46.78783352 </i>
    <i name="e_wo_entrp">    -46.78783352 </i>
    <i name="e_0_energy">    -46.78783352 </i>
   </energy>
  </scstep>
  <scstep>
   <time name="dav">    2.71    2.71</time>
   <time name="total">    2.85    2.85</time>
   <energy>
    <i name="e_fr_energy">    -46.79245191 </i>
    <i name="e_wo_entrp">    -46.79245191 </i>
    <i name="e_0_energy">    -46.79245191 </i>
   </energy>
  </scstep>
  <scstep>
   <time name="diag">    1.01    1.01</time>
   <time name="diis">    0.33    0.33</time>
   <time name="orth">    0.06    0.06</time>
   <time name="total">    1.69    1.69</time>
   <energy>
    <i name="e_fr_energy">    -44.48381653 </i>
    <i name="e_wo_entrp">    -44.48381653 </i>
    <i name="e_0_energy">    -44.48381653 </i>
   </energy>
  </scstep>
  <scstep>
   <time name="diag">    0.98    0.98</time>
   <time name="diis">    0.28    0.28</time>
   <time name="orth">    0.06    0.06</time>
   <time name="total">    1.56    1.56</time>
   <energy>
    <i name="e_fr_energy">    -43.98898576 </i>
    <i name="e_wo_entrp">    -43.98898576 </i>
    <i name="e_0_energy">    -43.98898576 </i>
   </energy>
  </scstep>
  <scstep>
   <time name="diag">    0.98    0.98</time>
   <time name="diis">    0.28    0.28</time>
   <time name="orth">    0.06    0.06</time>
   <time name="total">    1.55    1.56</time>
   <energy>
    <i name="e_fr_energy">    -43.62139844 </i>
    <i name="e_wo_entrp">    -43.62139844 </i>
    <i name="e_0_energy">    -43.62139844 </i>
   </energy>
  </scstep>
  <scstep>
   <time name="diag">    0.98    0.98</time>
   <time name="diis">    0.28    0.28</time>
   <time name="orth">    0.06    0.06</time>
   <time name="total">    1.55    1.56</time>
   <energy>
    <i name="e_fr_energy">    -43.60556048 </i>
    <i name="e_wo_entrp">    -43.60556048 </i>
    <i name="e_0_energy">    -43.60556048 </i>
   </energy>
  </scstep>
  <scstep>
   <time name="diag">    1.00    1.00</time>
   <time name="diis">    0.30    0.30</time>
   <time name="orth">    0.06    0.06</time>
   <time name="total">    1.59    1.59</time>
   <energy>
    <i name="e_fr_energy">    -43.60582630 </i>
    <i name="e_wo_entrp">    -43.60582630 </i>
    <i name="e_0_energy">    -43.60582630 </i>
   </energy>
  </scstep>
  <scstep>
   <time name="diag">    1.06    1.06</time>
   <time name="diis">    0.29    0.29</time>
   <time name="orth">    0.06    0.06</time>
   <time name="total">    1.65    1.65</time>
   <energy>
    <i name="e_fr_energy">    -43.60591696 </i>
    <i name="e_wo_entrp">    -43.60591696 </i>
    <i name="e_0_energy">    -43.60591696 </i>
   </energy>
  </scstep>
  <scstep>
   <time name="diag">    1.87    1.90</time>
   <time name="diis">    0.29    0.29</time>
   <time name="orth">    0.06    0.06</time>
   <time name="total">    2.46    2.50</time>
   <energy>
    <i name="e_fr_energy">    -43.60587348 </i>
    <i name="e_wo_entrp">    -43.60587348 </i>
    <i name="e_0_energy">    -43.60587348 </i>
   </energy>
  </scstep>
  <scstep>
   <time name="diag">    0.98    0.98</time>
   <time name="diis">    0.23    0.23</time>
   <time name="orth">    0.06    0.06</time>
   <time name="total">    1.41    1.41</time>
   <energy>
    <i name="alphaZ">     90.88146191 </i>
    <i name="ewald">  -1146.92748245 </i>
    <i name="hartreedc">   -544.53597030 </i>
    <i name="XCdc">    -70.30389017 </i>
    <i name="pawpsdc">   3201.35429610 </i>
    <i name="pawaedc">  -3049.77666561 </i>
    <i name="eentropy">     -0.00000000 </i>
    <i name="bandstr">    -66.62031930 </i>
    <i name="atom">   1542.32269226 </i>
    <i name="e_fr_energy">    -43.60587754 </i>
    <i name="e_wo_entrp">    -43.60587754 </i>
    <i name="e_0_energy">    -43.60587754 </i>
   </energy>
  </scstep>
  <structure>
   <crystal>
    <varray name="basis" >
     <v>       3.18301609       0.00000000       0.00000000 </v>
     <v>      -1.59150805       2.75657210       0.00000000 </v>
     <v>       0.00000000       0.00000000      14.87273815 </v>
    </varray>
    <i name="volume">    130.49657774 </i>
    <varray name="rec_basis" >
     <v>       0.31416743       0.18138470       0.00000000 </v>
     <v>       0.00000000       0.36276940       0.00000000 </v>
     <v>       0.00000000       0.00000000       0.06723711 </v>
    </varray>
   </crystal>
   <varray name="positions" >
    <v>       0.66666700       0.33333300       0.25000000 </v>
    <v>       0.33333300       0.66666700       0.75000000 </v>
    <v>       0.33333300       0.66666700       0.14485922 </v>
    <v>       0.66666700       0.33333300       0.64485922 </v>
    <v>       0.33333300       0.66666700       0.35514078 </v>
    <v>       0.66666700       0.33333300       0.85514078 </v>
   </varray>
  </structure>
  <varray name="forces" >
   <v>      -0.00006197       0.00003614       0.00001314 </v>
   <v>       0.00006264      -0.00003787      -0.00000287 </v>
   <v>       0.00003257      -0.00002177       0.00017810 </v>
   <v>      -0.00003228       0.00002262       0.00006649 </v>
   <v>       0.00002949      -0.00001801      -0.00018457 </v>
   <v>      -0.00003045       0.00001889      -0.00007029 </v>
  </varray>
  <varray name="stress" >
   <v>      -0.03306333       0.00033931       0.00011714 </v>
   <v>       0.00033954      -0.03200172      -0.00010447 </v>
   <v>       0.00011720      -0.00010460      -0.19521748 </v>
  </varray>
  <energy>
   <i name="e_fr_energy">    -43.60587754 </i>
   <i name="e_wo_entrp">    -43.60587754 </i>
   <i name="e_0_energy">     -0.00000000 </i>
  </energy>
  <scstep>
   <time name="total">    0.73    0.73</time>
   <energy>
    <i name="e_fr_energy">   -186.44275325 </i>
    <i name="e_wo_entrp">   -186.44275325 </i>
    <i name="e_0_energy">   -186.44275325 </i>
   </energy>
  </scstep>
  <scstep>
   <time name="total">    0.60    0.62</time>
   <energy>
    <i name="e_fr_energy">   -154.33713871 </i>
    <i name="e_wo_entrp">   -154.33713871 </i>
    <i name="e_0_energy">   -154.33713871 </i>
   </energy>
  </scstep>
  <scstep>
   <time name="total">    0.59    0.59</time>
   <energy>
    <i name="e_fr_energy">   -154.41403537 </i>
    <i name="e_wo_entrp">   -154.41403537 </i>
    <i name="e_0_energy">   -154.41403537 </i>
   </energy>
  </scstep>
  <scstep>
   <time name="total">    0.54    0.54</time>
   <energy>
    <i name="e_fr_energy">   -154.41387920 </i>
    <i name="e_wo_entrp">   -154.41387920 </i>
    <i name="e_0_energy">   -154.41387920 </i>
   </energy>
  </scstep>
  <scstep>
   <time name="total">    0.55    0.60</time>
   <energy>
    <i name="e_fr_energy">   -154.41389191 </i>
    <i name="e_wo_entrp">   -154.41389191 </i>
    <i name="e_0_energy">   -154.41389191 </i>
   </energy>
  </scstep>
  <scstep>
   <time name="total">    0.52    0.52</time>
   <energy>
    <i name="e_fr_energy">   -154.41388886 </i>
    <i name="e_wo_entrp">   -154.41388886 </i>
    <i name="e_0_energy">   -154.41388886 </i>
   </energy>
  </scstep>
  <scstep>
   <time name="total">    0.51    0.51</time>
   <energy>
    <i name="e_fr_energy">   -154.41388961 </i>
    <i name="e_wo_entrp">   -154.41388961 </i>
    <i name="e_0_energy">   -154.41388961 </i>
   </energy>
  </scstep>
  <scstep>
   <time name="total">    0.50    0.50</time>
   <energy>
    <i name="e_fr_energy">   -154.41388965 </i>
    <i name="e_wo_entrp">   -154.41388965 </i>
    <i name="e_0_energy">   -154.41388965 </i>
   </energy>
  </scstep>
  <scstep>
   <time name="total">    0.50    0.50</time>
   <energy>
    <i name="e_fr_energy">   -154.41388934 </i>
    <i name="e_wo_entrp">   -154.41388934 </i>
    <i name="e_0_energy">   -154.41388934 </i>
   </energy>
  </scstep>
  <scstep>
   <time name="total">    0.73    0.73</time>
   <energy>
    <i name="e_fr_energy">   -186.13926910 </i>
    <i name="e_wo_entrp">   -186.13926910 </i>
    <i name="e_0_energy">   -186.13926910 </i>
   </energy>
  </scstep>
  <scstep>
   <time name="total">    0.60    0.60</time>
   <energy>
    <i name="e_fr_energy">   -154.33939141 </i>
    <i name="e_wo_entrp">   -154.33939141 </i>
    <i name="e_0_energy">   -154.33939141 </i>
   </energy>
  </scstep>
  <scstep>
   <time name="total">    0.59    0.59</time>
   <energy>
    <i name="e_fr_energy">   -154.41611480 </i>
    <i name="e_wo_entrp">   -154.41611480 </i>
    <i name="e_0_energy">   -154.41611480 </i>
   </energy>
  </scstep>
  <scstep>
   <time name="total">    0.54    0.54</time>
   <energy>
    <i name="e_fr_energy">   -154.41597206 </i>
    <i name="e_wo_entrp">   -154.41597206 </i>
    <i name="e_0_energy">   -154.41597206 </i>
   </energy>
  </scstep>
  <scstep>
   <time name="total">    0.59    0.59</time>
   <energy>
    <i name="e_fr_energy">   -154.41598316 </i>
    <i name="e_wo_entrp">   -154.41598316 </i>
    <i name="e_0_energy">   -154.41598316 </i>
   </energy>
  </scstep>
  <scstep>
   <time name="total">    0.54    0.54</time>
   <energy>
    <i name="e_fr_energy">   -154.41598009 </i>
    <i name="e_wo_entrp">   -154.41598009 </i>
    <i name="e_0_energy">   -154.41598009 </i>
   </energy>
  </scstep>
  <scstep>
   <time name="total">    0.54    0.54</time>
   <energy>
    <i name="e_fr_energy">   -154.41598065 </i>
    <i name="e_wo_entrp">   -154.41598065 </i>
    <i name="e_0_energy">   -154.41598065 </i>
   </energy>
  </scstep>
  <scstep>
   <time name="total">    0.50    0.50</time>
   <energy>
    <i name="e_fr_energy">   -154.41598080 </i>
    <i name="e_wo_entrp">   -154.41598080 </i>
    <i name="e_0_energy">   -154.41598080 </i>
   </energy>
  </scstep>
  <scstep>
   <time name="total">    0.50    0.50</time>
   <energy>
    <i name="e_fr_energy">   -154.41598074 </i>
    <i name="e_wo_entrp">   -154.41598074 </i>
    <i name="e_0_energy">   -154.41598074 </i>
   </energy>
  </scstep>
  <scstep>
   <time name="total">    0.72    0.72</time>
   <energy>
    <i name="e_fr_energy">   -180.81355844 </i>
    <i name="e_wo_entrp">   -180.81355844 </i>
    <i name="e_0_energy">   -180.81355844 </i>
   </energy>
  </scstep>
  <scstep>
   <time name="total">    0.60    0.61</time>
   <energy>
    <i name="e_fr_energy">   -156.00873991 </i>
    <i name="e_wo_entrp">   -156.00873991 </i>
    <i name="e_0_energy">   -156.00873991 </i>
   </energy>
  </scstep>
  <scstep>
   <time name="total">    0.62    0.62</time>
   <energy>
    <i name="e_fr_energy">   -156.13334745 </i>
    <i name="e_wo_entrp">   -156.13334745 </i>
    <i name="e_0_energy">   -156.13334745 </i>
   </energy>
  </scstep>
  <scstep>
   <time name="total">    0.52    0.53</time>
   <energy>
    <i name="e_fr_energy">   -156.13597121 </i>
    <i name="e_wo_entrp">   -156.13597121 </i>
    <i name="e_0_energy">   -156.13597121 </i>
   </energy>
  </scstep>
  <scstep>
   <time name="total">    0.53    0.53</time>
   <energy>
    <i name="e_fr_energy">   -156.13599341 </i>
    <i name="e_wo_entrp">   -156.13599341 </i>
    <i name="e_0_energy">   -156.13599341 </i>
   </energy>
  </scstep>
  <scstep>
   <time name="total">    0.54    0.54</time>
   <energy>
    <i name="e_fr_energy">   -156.13599428 </i>
    <i name="e_wo_entrp">   -156.13599428 </i>
    <i name="e_0_energy">   -156.13599428 </i>
   </energy>
  </scstep>
  <scstep>
   <time name="total">    0.97    0.97</time>
   <energy>
    <i name="e_fr_energy">     -4.31696189 </i>
    <i name="e_wo_entrp">     -4.31696189 </i>
    <i name="e_0_energy">     -4.31696189 </i>
   </energy>
  </scstep>
  <scstep>
   <time name="total">    0.93    0.94</time>
   <energy>
    <i name="e_fr_energy">     -4.43231280 </i>
    <i name="e_wo_entrp">     -4.43231280 </i>
    <i name="e_0_energy">     -4.43231280 </i>
   </energy>
  </scstep>
  <scstep>
   <time name="total">    0.93    0.93</time>
   <energy>
    <i name="e_fr_energy">     -4.43403964 </i>
    <i name="e_wo_entrp">     -4.43403964 </i>
    <i name="e_0_energy">     -4.43403964 </i>
   </energy>
  </scstep>
  <scstep>
   <time name="total">    0.94    0.94</time>
   <energy>
    <i name="e_fr_energy">     -4.43406765 </i>
    <i name="e_wo_entrp">     -4.43406765 </i>
    <i name="e_0_energy">     -4.43406765 </i>
   </energy>
  </scstep>
  <scstep>
   <time name="total">    0.94    0.94</time>
   <energy>
    <i name="e_fr_energy">     -4.43406807 </i>
    <i name="e_wo_entrp">     -4.43406807 </i>
    <i name="e_0_energy">     -4.43406807 </i>
   </energy>
  </scstep>
  <scstep>
   <time name="total">    0.96    0.97</time>
   <energy>
    <i name="e_fr_energy">     -4.31310895 </i>
    <i name="e_wo_entrp">     -4.31310895 </i>
    <i name="e_0_energy">     -4.31310895 </i>
   </energy>
  </scstep>
  <scstep>
   <time name="total">    0.93    0.94</time>
   <energy>
    <i name="e_fr_energy">     -4.43233497 </i>
    <i name="e_wo_entrp">     -4.43233497 </i>
    <i name="e_0_energy">     -4.43233497 </i>
   </energy>
  </scstep>
  <scstep>
   <time name="total">    0.95    0.95</time>
   <energy>
    <i name="e_fr_energy">     -4.43404122 </i>
    <i name="e_wo_entrp">     -4.43404122 </i>
    <i name="e_0_energy">     -4.43404122 </i>
   </energy>
  </scstep>
  <scstep>
   <time name="total">    0.97    0.98</time>
   <energy>
    <i name="e_fr_energy">     -4.43406859 </i>
    <i name="e_wo_entrp">     -4.43406859 </i>
    <i name="e_0_energy">     -4.43406859 </i>
   </energy>
  </scstep>
  <scstep>
   <time name="total">    0.97    0.98</time>
   <energy>
    <i name="e_fr_energy">     -4.43406899 </i>
    <i name="e_wo_entrp">     -4.43406899 </i>
    <i name="e_0_energy">     -4.43406899 </i>
   </energy>
  </scstep>
  <scstep>
   <time name="total">    1.02    1.02</time>
   <energy>
    <i name="e_fr_energy">     -2.15435563 </i>
    <i name="e_wo_entrp">     -2.15435563 </i>
    <i name="e_0_energy">     -2.15435563 </i>
   </energy>
  </scstep>
  <scstep>
   <time name="total">    0.95    0.95</time>
   <energy>
    <i name="e_fr_energy">     -2.24901978 </i>
    <i name="e_wo_entrp">     -2.24901978 </i>
    <i name="e_0_energy">     -2.24901978 </i>
   </energy>
  </scstep>
  <scstep>
   <time name="total">    0.94    0.94</time>
   <energy>
    <i name="e_fr_energy">     -2.24953774 </i>
    <i name="e_wo_entrp">     -2.24953774 </i>
    <i name="e_0_energy">     -2.24953774 </i>
   </energy>
  </scstep>
  <scstep>
   <time name="total">    0.94    0.94</time>
   <energy>
    <i name="e_fr_energy">     -2.24954618 </i>
    <i name="e_wo_entrp">     -2.24954618 </i>
    <i name="e_0_energy">     -2.24954618 </i>
   </energy>
  </scstep>
  <varray name="epsilon_rpa" >
   <v>      13.29703968       0.00001020       0.00000062 </v>
   <v>       0.00001037      13.29704158       0.00000129 </v>
   <v>       0.00000075       0.00000147       7.23874576 </v>
  </varray>
  <scstep>
   <time name="total">    0.96    0.96</time>
   <energy>
    <i name="e_fr_energy">     -4.31696189 </i>
    <i name="e_wo_entrp">     -4.31696189 </i>
    <i name="e_0_energy">     -4.31696189 </i>
   </energy>
  </scstep>
  <scstep>
   <time name="total">    1.05    1.05</time>
   <energy>
    <i name="e_fr_energy">     -4.43231280 </i>
    <i name="e_wo_entrp">     -4.43231280 </i>
    <i name="e_0_energy">     -4.43231280 </i>
   </energy>
  </scstep>
  <scstep>
   <time name="total">    1.05    1.05</time>
   <energy>
    <i name="e_fr_energy">     -4.28360162 </i>
    <i name="e_wo_entrp">     -4.28360162 </i>
    <i name="e_0_energy">     -4.28360162 </i>
   </energy>
  </scstep>
  <scstep>
   <time name="total">    1.05    1.07</time>
   <energy>
    <i name="e_fr_energy">     -4.44474010 </i>
    <i name="e_wo_entrp">     -4.44474010 </i>
    <i name="e_0_energy">     -4.44474010 </i>
   </energy>
  </scstep>
  <scstep>
   <time name="total">    1.08    1.15</time>
   <energy>
    <i name="e_fr_energy">     -4.49347837 </i>
    <i name="e_wo_entrp">     -4.49347837 </i>
    <i name="e_0_energy">     -4.49347837 </i>
   </energy>
  </scstep>
  <scstep>
   <time name="total">    1.10    1.10</time>
   <energy>
    <i name="e_fr_energy">     -4.48563708 </i>
    <i name="e_wo_entrp">     -4.48563708 </i>
    <i name="e_0_energy">     -4.48563708 </i>
   </energy>
  </scstep>
  <scstep>
   <time name="total">    1.06    1.06</time>
   <energy>
    <i name="e_fr_energy">     -4.48952457 </i>
    <i name="e_wo_entrp">     -4.48952457 </i>
    <i name="e_0_energy">     -4.48952457 </i>
   </energy>
  </scstep>
  <scstep>
   <time name="total">    1.06    1.06</time>
   <energy>
    <i name="e_fr_energy">     -4.49159349 </i>
    <i name="e_wo_entrp">     -4.49159349 </i>
    <i name="e_0_energy">     -4.49159349 </i>
   </energy>
  </scstep>
  <scstep>
   <time name="total">    1.08    1.08</time>
   <energy>
    <i name="e_fr_energy">     -4.49203664 </i>
    <i name="e_wo_entrp">     -4.49203664 </i>
    <i name="e_0_energy">     -4.49203664 </i>
   </energy>
  </scstep>
  <scstep>
   <time name="total">    1.06    1.07</time>
   <energy>
    <i name="e_fr_energy">     -4.49201667 </i>
    <i name="e_wo_entrp">     -4.49201667 </i>
    <i name="e_0_energy">     -4.49201667 </i>
   </energy>
  </scstep>
  <scstep>
   <time name="total">    1.06    1.06</time>
   <energy>
    <i name="e_fr_energy">     -4.49201231 </i>
    <i name="e_wo_entrp">     -4.49201231 </i>
    <i name="e_0_energy">     -4.49201231 </i>
   </energy>
  </scstep>
  <scstep>
   <time name="total">    0.97    0.97</time>
   <energy>
    <i name="e_fr_energy">     -4.31310895 </i>
    <i name="e_wo_entrp">     -4.31310895 </i>
    <i name="e_0_energy">     -4.31310895 </i>
   </energy>
  </scstep>
  <scstep>
   <time name="total">    1.07    1.08</time>
   <energy>
    <i name="e_fr_energy">     -4.43233497 </i>
    <i name="e_wo_entrp">     -4.43233497 </i>
    <i name="e_0_energy">     -4.43233497 </i>
   </energy>
  </scstep>
  <scstep>
   <time name="total">    1.06    1.06</time>
   <energy>
    <i name="e_fr_energy">     -4.28363657 </i>
    <i name="e_wo_entrp">     -4.28363657 </i>
    <i name="e_0_energy">     -4.28363657 </i>
   </energy>
  </scstep>
  <scstep>
   <time name="total">    1.13    1.13</time>
   <energy>
    <i name="e_fr_energy">     -4.44530653 </i>
    <i name="e_wo_entrp">     -4.44530653 </i>
    <i name="e_0_energy">     -4.44530653 </i>
   </energy>
  </scstep>
  <scstep>
   <time name="total">    1.06    1.06</time>
   <energy>
    <i name="e_fr_energy">     -4.49308863 </i>
    <i name="e_wo_entrp">     -4.49308863 </i>
    <i name="e_0_energy">     -4.49308863 </i>
   </energy>
  </scstep>
  <scstep>
   <time name="total">    1.09    1.09</time>
   <energy>
    <i name="e_fr_energy">     -4.48662305 </i>
    <i name="e_wo_entrp">     -4.48662305 </i>
    <i name="e_0_energy">     -4.48662305 </i>
   </energy>
  </scstep>
  <scstep>
   <time name="total">    1.06    1.06</time>
   <energy>
    <i name="e_fr_energy">     -4.48804068 </i>
    <i name="e_wo_entrp">     -4.48804068 </i>
    <i name="e_0_energy">     -4.48804068 </i>
   </energy>
  </scstep>
  <scstep>
   <time name="total">    1.06    1.07</time>
   <energy>
    <i name="e_fr_energy">     -4.49157478 </i>
    <i name="e_wo_entrp">     -4.49157478 </i>
    <i name="e_0_energy">     -4.49157478 </i>
   </energy>
  </scstep>
  <scstep>
   <time name="total">    1.07    1.07</time>
   <energy>
    <i name="e_fr_energy">     -4.49201894 </i>
    <i name="e_wo_entrp">     -4.49201894 </i>
    <i name="e_0_energy">     -4.49201894 </i>
   </energy>
  </scstep>
  <scstep>
   <time name="total">    1.03    1.03</time>
   <energy>
    <i name="e_fr_energy">     -4.49202397 </i>
    <i name="e_wo_entrp">     -4.49202397 </i>
    <i name="e_0_energy">     -4.49202397 </i>
   </energy>
  </scstep>
  <scstep>
   <time name="total">    0.97    0.97</time>
   <energy>
    <i name="e_fr_energy">     -2.15435563 </i>
    <i name="e_wo_entrp">     -2.15435563 </i>
    <i name="e_0_energy">     -2.15435563 </i>
   </energy>
  </scstep>
  <scstep>
   <time name="total">    1.06    1.06</time>
   <energy>
    <i name="e_fr_energy">     -2.24901978 </i>
    <i name="e_wo_entrp">     -2.24901978 </i>
    <i name="e_0_energy">     -2.24901978 </i>
   </energy>
  </scstep>
  <scstep>
   <time name="total">    1.05    1.05</time>
   <energy>
    <i name="e_fr_energy">     -0.97382951 </i>
    <i name="e_wo_entrp">     -0.97382951 </i>
    <i name="e_0_energy">     -0.97382951 </i>
   </energy>
  </scstep>
  <scstep>
   <time name="total">    1.06    1.06</time>
   <energy>
    <i name="e_fr_energy">     -0.87806768 </i>
    <i name="e_wo_entrp">     -0.87806768 </i>
    <i name="e_0_energy">     -0.87806768 </i>
   </energy>
  </scstep>
  <scstep>
   <time name="total">    1.08    1.10</time>
   <energy>
    <i name="e_fr_energy">     -0.87998577 </i>
    <i name="e_wo_entrp">     -0.87998577 </i>
    <i name="e_0_energy">     -0.87998577 </i>
   </energy>
  </scstep>
  <scstep>
   <time name="total">    1.06    1.06</time>
   <energy>
    <i name="e_fr_energy">     -0.88654381 </i>
    <i name="e_wo_entrp">     -0.88654381 </i>
    <i name="e_0_energy">     -0.88654381 </i>
   </energy>
  </scstep>
  <scstep>
   <time name="total">    1.12    1.15</time>
   <energy>
    <i name="e_fr_energy">     -0.90345658 </i>
    <i name="e_wo_entrp">     -0.90345658 </i>
    <i name="e_0_energy">     -0.90345658 </i>
   </energy>
  </scstep>
  <scstep>
   <time name="total">    1.06    1.06</time>
   <energy>
    <i name="e_fr_energy">     -0.90490151 </i>
    <i name="e_wo_entrp">     -0.90490151 </i>
    <i name="e_0_energy">     -0.90490151 </i>
   </energy>
  </scstep>
  <scstep>
   <time name="total">    1.06    1.06</time>
   <energy>
    <i name="e_fr_energy">     -0.90606561 </i>
    <i name="e_wo_entrp">     -0.90606561 </i>
    <i name="e_0_energy">     -0.90606561 </i>
   </energy>
  </scstep>
  <scstep>
   <time name="total">    1.08    1.08</time>
   <energy>
    <i name="e_fr_energy">     -0.90611779 </i>
    <i name="e_wo_entrp">     -0.90611779 </i>
    <i name="e_0_energy">     -0.90611779 </i>
   </energy>
  </scstep>
  <scstep>
   <time name="total">    1.08    1.08</time>
   <energy>
    <i name="e_fr_energy">     -0.90608953 </i>
    <i name="e_wo_entrp">     -0.90608953 </i>
    <i name="e_0_energy">     -0.90608953 </i>
   </energy>
  </scstep>
  <scstep>
   <time name="total">    1.14    1.15</time>
   <energy>
    <i name="e_fr_energy">     -0.90613253 </i>
    <i name="e_wo_entrp">     -0.90613253 </i>
    <i name="e_0_energy">     -0.90613253 </i>
   </energy>
  </scstep>
  <scstep>
   <time name="total">    1.07    1.07</time>
   <energy>
    <i name="e_fr_energy">     -0.90614782 </i>
    <i name="e_wo_entrp">     -0.90614782 </i>
    <i name="e_0_energy">     -0.90614782 </i>
   </energy>
  </scstep>
  <scstep>
   <time name="total">    0.96    0.97</time>
   <energy>
    <i name="e_fr_energy">     -0.90614977 </i>
    <i name="e_wo_entrp">     -0.90614977 </i>
    <i name="e_0_energy">     -0.90614977 </i>
   </energy>
  </scstep>
  <varray name="epsilon" >
   <v>      12.62068785       0.00000912       0.00000054 </v>
   <v>       0.00000921      12.62067656       0.00000099 </v>
   <v>       0.00000010       0.00000109       3.30190644 </v>
  </varray>
  <scstep>
   <time name="total">    1.16    1.16</time>
   <energy>
    <i name="e_fr_energy">   -311.87549587 </i>
    <i name="e_wo_entrp">   -311.87549587 </i>
    <i name="e_0_energy">   -311.87549587 </i>
   </energy>
  </scstep>
  <scstep>
   <time name="total">    1.38    1.38</time>
   <energy>
    <i name="e_fr_energy">   -299.67270432 </i>
    <i name="e_wo_entrp">   -299.67270432 </i>
    <i name="e_0_energy">   -299.67270432 </i>
   </energy>
  </scstep>
  <scstep>
   <time name="total">    1.37    1.37</time>
   <energy>
    <i name="e_fr_energy">   -298.06975420 </i>
    <i name="e_wo_entrp">   -298.06975420 </i>
    <i name="e_0_energy">   -298.06975420 </i>
   </energy>
  </scstep>
  <scstep>
   <time name="total">    1.37    1.37</time>
   <energy>
    <i name="e_fr_energy">   -297.54540941 </i>
    <i name="e_wo_entrp">   -297.54540941 </i>
    <i name="e_0_energy">   -297.54540941 </i>
   </energy>
  </scstep>
  <scstep>
   <time name="total">    1.40    1.40</time>
   <energy>
    <i name="e_fr_energy">   -297.65644841 </i>
    <i name="e_wo_entrp">   -297.65644841 </i>
    <i name="e_0_energy">   -297.65644841 </i>
   </energy>
  </scstep>
  <scstep>
   <time name="total">    1.40    1.40</time>
   <energy>
    <i name="e_fr_energy">   -297.67263609 </i>
    <i name="e_wo_entrp">   -297.67263609 </i>
    <i name="e_0_energy">   -297.67263609 </i>
   </energy>
  </scstep>
  <scstep>
   <time name="total">    1.16    1.16</time>
   <energy>
    <i name="e_fr_energy">   -312.11618412 </i>
    <i name="e_wo_entrp">   -312.11618412 </i>
    <i name="e_0_energy">   -312.11618412 </i>
   </energy>
  </scstep>
  <scstep>
   <time name="total">    1.43    1.46</time>
   <energy>
    <i name="e_fr_energy">   -299.84083050 </i>
    <i name="e_wo_entrp">   -299.84083050 </i>
    <i name="e_0_energy">   -299.84083050 </i>
   </energy>
  </scstep>
  <scstep>
   <time name="total">    1.40    1.40</time>
   <energy>
    <i name="e_fr_energy">   -298.08951611 </i>
    <i name="e_wo_entrp">   -298.08951611 </i>
    <i name="e_0_energy">   -298.08951611 </i>
   </energy>
  </scstep>
  <scstep>
   <time name="total">    1.38    1.38</time>
   <energy>
    <i name="e_fr_energy">   -297.57214359 </i>
    <i name="e_wo_entrp">   -297.57214359 </i>
    <i name="e_0_energy">   -297.57214359 </i>
   </energy>
  </scstep>
  <scstep>
   <time name="total">    1.42    1.43</time>
   <energy>
    <i name="e_fr_energy">   -297.68481255 </i>
    <i name="e_wo_entrp">   -297.68481255 </i>
    <i name="e_0_energy">   -297.68481255 </i>
   </energy>
  </scstep>
  <scstep>
   <time name="total">    1.49    1.49</time>
   <energy>
    <i name="e_fr_energy">   -297.69077853 </i>
    <i name="e_wo_entrp">   -297.69077853 </i>
    <i name="e_0_energy">   -297.69077853 </i>
   </energy>
  </scstep>
  <scstep>
   <time name="total">    1.20    1.20</time>
   <energy>
    <i name="e_fr_energy">   -419.25123007 </i>
    <i name="e_wo_entrp">   -419.25123007 </i>
    <i name="e_0_energy">   -419.25123007 </i>
   </energy>
  </scstep>
  <scstep>
   <time name="total">    1.34    1.34</time>
   <energy>
    <i name="e_fr_energy">   -380.69962684 </i>
    <i name="e_wo_entrp">   -380.69962684 </i>
    <i name="e_0_energy">   -380.69962684 </i>
   </energy>
  </scstep>
  <scstep>
   <time name="total">    1.40    1.40</time>
   <energy>
    <i name="e_fr_energy">   -378.52897889 </i>
    <i name="e_wo_entrp">   -378.52897889 </i>
    <i name="e_0_energy">   -378.52897889 </i>
   </energy>
  </scstep>
  <scstep>
   <time name="total">    1.39    1.39</time>
   <energy>
    <i name="e_fr_energy">   -378.11986123 </i>
    <i name="e_wo_entrp">   -378.11986123 </i>
    <i name="e_0_energy">   -378.11986123 </i>
   </energy>
  </scstep>
  <scstep>
   <time name="total">    1.40    1.41</time>
   <energy>
    <i name="e_fr_energy">   -378.31150742 </i>
    <i name="e_wo_entrp">   -378.31150742 </i>
    <i name="e_0_energy">   -378.31150742 </i>
   </energy>
  </scstep>
  <scstep>
   <time name="total">    1.46    1.46</time>
   <energy>
    <i name="e_fr_energy">   -378.41581704 </i>
    <i name="e_wo_entrp">   -378.41581704 </i>
    <i name="e_0_energy">   -378.41581704 </i>
   </energy>
  </scstep>
  <scstep>
   <time name="total">    1.46    1.46</time>
   <energy>
    <i name="e_fr_energy">   -378.45122458 </i>
    <i name="e_wo_entrp">   -378.45122458 </i>
    <i name="e_0_energy">   -378.45122458 </i>
   </energy>
  </scstep>
  <scstep>
   <time name="total">    1.41    1.41</time>
   <energy>
    <i name="e_fr_energy">   -378.44546576 </i>
    <i name="e_wo_entrp">   -378.44546576 </i>
    <i name="e_0_energy">   -378.44546576 </i>
   </energy>
  </scstep>
  <scstep>
   <time name="total">    1.16    1.16</time>
   <energy>
    <i name="e_fr_energy">   -311.87984148 </i>
    <i name="e_wo_entrp">   -311.87984148 </i>
    <i name="e_0_energy">   -311.87984148 </i>
   </energy>
  </scstep>
  <scstep>
   <time name="total">    1.33    1.33</time>
   <energy>
    <i name="e_fr_energy">   -299.71754134 </i>
    <i name="e_wo_entrp">   -299.71754134 </i>
    <i name="e_0_energy">   -299.71754134 </i>
   </energy>
  </scstep>
  <scstep>
   <time name="total">    1.43    1.43</time>
   <energy>
    <i name="e_fr_energy">   -298.12239610 </i>
    <i name="e_wo_entrp">   -298.12239610 </i>
    <i name="e_0_energy">   -298.12239610 </i>
   </energy>
  </scstep>
  <scstep>
   <time name="total">    1.43    1.43</time>
   <energy>
    <i name="e_fr_energy">   -297.59441868 </i>
    <i name="e_wo_entrp">   -297.59441868 </i>
    <i name="e_0_energy">   -297.59441868 </i>
   </energy>
  </scstep>
  <scstep>
   <time name="total">    1.39    1.40</time>
   <energy>
    <i name="e_fr_energy">   -297.66539748 </i>
    <i name="e_wo_entrp">   -297.66539748 </i>
    <i name="e_0_energy">   -297.66539748 </i>
   </energy>
  </scstep>
  <scstep>
   <time name="total">    1.40    1.40</time>
   <energy>
    <i name="e_fr_energy">   -297.67451139 </i>
    <i name="e_wo_entrp">   -297.67451139 </i>
    <i name="e_0_energy">   -297.67451139 </i>
   </energy>
  </scstep>
  <scstep>
   <time name="total">    1.17    1.17</time>
   <energy>
    <i name="e_fr_energy">   -312.11911850 </i>
    <i name="e_wo_entrp">   -312.11911850 </i>
    <i name="e_0_energy">   -312.11911850 </i>
   </energy>
  </scstep>
  <scstep>
   <time name="total">    1.37    1.37</time>
   <energy>
    <i name="e_fr_energy">   -299.55101136 </i>
    <i name="e_wo_entrp">   -299.55101136 </i>
    <i name="e_0_energy">   -299.55101136 </i>
   </energy>
  </scstep>
  <scstep>
   <time name="total">    1.38    1.38</time>
   <energy>
    <i name="e_fr_energy">   -298.10393058 </i>
    <i name="e_wo_entrp">   -298.10393058 </i>
    <i name="e_0_energy">   -298.10393058 </i>
   </energy>
  </scstep>
  <scstep>
   <time name="total">    1.43    1.43</time>
   <energy>
    <i name="e_fr_energy">   -297.56886465 </i>
    <i name="e_wo_entrp">   -297.56886465 </i>
    <i name="e_0_energy">   -297.56886465 </i>
   </energy>
  </scstep>
  <scstep>
   <time name="total">    1.39    1.39</time>
   <energy>
    <i name="e_fr_energy">   -297.63387559 </i>
    <i name="e_wo_entrp">   -297.63387559 </i>
    <i name="e_0_energy">   -297.63387559 </i>
   </energy>
  </scstep>
  <scstep>
   <time name="total">    1.40    1.40</time>
   <energy>
    <i name="e_fr_energy">   -297.65760539 </i>
    <i name="e_wo_entrp">   -297.65760539 </i>
    <i name="e_0_energy">   -297.65760539 </i>
   </energy>
  </scstep>
  <scstep>
   <time name="total">    1.22    1.22</time>
   <energy>
    <i name="e_fr_energy">   -419.25898973 </i>
    <i name="e_wo_entrp">   -419.25898973 </i>
    <i name="e_0_energy">   -419.25898973 </i>
   </energy>
  </scstep>
  <scstep>
   <time name="total">    1.41    1.41</time>
   <energy>
    <i name="e_fr_energy">   -380.83677165 </i>
    <i name="e_wo_entrp">   -380.83677165 </i>
    <i name="e_0_energy">   -380.83677165 </i>
   </energy>
  </scstep>
  <scstep>
   <time name="total">    1.40    1.40</time>
   <energy>
    <i name="e_fr_energy">   -378.63714124 </i>
    <i name="e_wo_entrp">   -378.63714124 </i>
    <i name="e_0_energy">   -378.63714124 </i>
   </energy>
  </scstep>
  <scstep>
   <time name="total">    1.39    1.39</time>
   <energy>
    <i name="e_fr_energy">   -378.23658539 </i>
    <i name="e_wo_entrp">   -378.23658539 </i>
    <i name="e_0_energy">   -378.23658539 </i>
   </energy>
  </scstep>
  <scstep>
   <time name="total">    1.40    1.40</time>
   <energy>
    <i name="e_fr_energy">   -378.42379805 </i>
    <i name="e_wo_entrp">   -378.42379805 </i>
    <i name="e_0_energy">   -378.42379805 </i>
   </energy>
  </scstep>
  <scstep>
   <time name="total">    1.40    1.40</time>
   <energy>
    <i name="e_fr_energy">   -378.52851619 </i>
    <i name="e_wo_entrp">   -378.52851619 </i>
    <i name="e_0_energy">   -378.52851619 </i>
   </energy>
  </scstep>
  <scstep>
   <time name="total">    1.42    1.43</time>
   <energy>
    <i name="e_fr_energy">   -378.56388725 </i>
    <i name="e_wo_entrp">   -378.56388725 </i>
    <i name="e_0_energy">   -378.56388725 </i>
   </energy>
  </scstep>
  <scstep>
   <time name="total">    1.46    1.46</time>
   <energy>
    <i name="e_fr_energy">   -378.55817609 </i>
    <i name="e_wo_entrp">   -378.55817609 </i>
    <i name="e_0_energy">   -378.55817609 </i>
   </energy>
  </scstep>
  <scstep>
   <time name="total">    1.27    1.27</time>
   <energy>
    <i name="e_fr_energy">   -235.57690517 </i>
    <i name="e_wo_entrp">   -235.57690517 </i>
    <i name="e_0_energy">   -235.57690517 </i>
   </energy>
  </scstep>
  <scstep>
   <time name="total">    1.31    1.31</time>
   <energy>
    <i name="e_fr_energy">   -232.13830784 </i>
    <i name="e_wo_entrp">   -232.13830784 </i>
    <i name="e_0_energy">   -232.13830784 </i>
   </energy>
  </scstep>
  <scstep>
   <time name="total">    1.38    1.38</time>
   <energy>
    <i name="e_fr_energy">   -232.79425794 </i>
    <i name="e_wo_entrp">   -232.79425794 </i>
    <i name="e_0_energy">   -232.79425794 </i>
   </energy>
  </scstep>
  <scstep>
   <time name="total">    1.38    1.38</time>
   <energy>
    <i name="e_fr_energy">   -233.70056451 </i>
    <i name="e_wo_entrp">   -233.70056451 </i>
    <i name="e_0_energy">   -233.70056451 </i>
   </energy>
  </scstep>
  <scstep>
   <time name="total">    1.40    1.40</time>
   <energy>
    <i name="e_fr_energy">   -233.46326835 </i>
    <i name="e_wo_entrp">   -233.46326835 </i>
    <i name="e_0_energy">   -233.46326835 </i>
   </energy>
  </scstep>
  <scstep>
   <time name="total">    1.42    1.42</time>
   <energy>
    <i name="e_fr_energy">   -233.45537838 </i>
    <i name="e_wo_entrp">   -233.45537838 </i>
    <i name="e_0_energy">   -233.45537838 </i>
   </energy>
  </scstep>
  <scstep>
   <time name="total">    1.23    1.23</time>
   <energy>
    <i name="e_fr_energy">   -235.96772653 </i>
    <i name="e_wo_entrp">   -235.96772653 </i>
    <i name="e_0_energy">   -235.96772653 </i>
   </energy>
  </scstep>
  <scstep>
   <time name="total">    1.30    1.30</time>
   <energy>
    <i name="e_fr_energy">   -232.23980886 </i>
    <i name="e_wo_entrp">   -232.23980886 </i>
    <i name="e_0_energy">   -232.23980886 </i>
   </energy>
  </scstep>
  <scstep>
   <time name="total">    1.40    1.40</time>
   <energy>
    <i name="e_fr_energy">   -232.80061778 </i>
    <i name="e_wo_entrp">   -232.80061778 </i>
    <i name="e_0_energy">   -232.80061778 </i>
   </energy>
  </scstep>
  <scstep>
   <time name="total">    1.39    1.39</time>
   <energy>
    <i name="e_fr_energy">   -233.69417657 </i>
    <i name="e_wo_entrp">   -233.69417657 </i>
    <i name="e_0_energy">   -233.69417657 </i>
   </energy>
  </scstep>
  <scstep>
   <time name="total">    1.40    1.40</time>
   <energy>
    <i name="e_fr_energy">   -233.46252892 </i>
    <i name="e_wo_entrp">   -233.46252892 </i>
    <i name="e_0_energy">   -233.46252892 </i>
   </energy>
  </scstep>
  <scstep>
   <time name="total">    1.47    1.47</time>
   <energy>
    <i name="e_fr_energy">   -233.45320379 </i>
    <i name="e_wo_entrp">   -233.45320379 </i>
    <i name="e_0_energy">   -233.45320379 </i>
   </energy>
  </scstep>
  <scstep>
   <time name="total">    1.22    1.22</time>
   <energy>
    <i name="e_fr_energy">   -390.04010588 </i>
    <i name="e_wo_entrp">   -390.04010588 </i>
    <i name="e_0_energy">   -390.04010588 </i>
   </energy>
  </scstep>
  <scstep>
   <time name="total">    1.33    1.33</time>
   <energy>
    <i name="e_fr_energy">   -376.75624348 </i>
    <i name="e_wo_entrp">   -376.75624348 </i>
    <i name="e_0_energy">   -376.75624348 </i>
   </energy>
  </scstep>
  <scstep>
   <time name="total">    1.40    1.40</time>
   <energy>
    <i name="e_fr_energy">   -376.63729449 </i>
    <i name="e_wo_entrp">   -376.63729449 </i>
    <i name="e_0_energy">   -376.63729449 </i>
   </energy>
  </scstep>
  <scstep>
   <time name="total">    1.40    1.40</time>
   <energy>
    <i name="e_fr_energy">   -377.06449670 </i>
    <i name="e_wo_entrp">   -377.06449670 </i>
    <i name="e_0_energy">   -377.06449670 </i>
   </energy>
  </scstep>
  <scstep>
   <time name="total">    1.46    1.47</time>
   <energy>
    <i name="e_fr_energy">   -377.02420624 </i>
    <i name="e_wo_entrp">   -377.02420624 </i>
    <i name="e_0_energy">   -377.02420624 </i>
   </energy>
  </scstep>
  <scstep>
   <time name="total">    1.44    1.47</time>
   <energy>
    <i name="e_fr_energy">   -376.99991766 </i>
    <i name="e_wo_entrp">   -376.99991766 </i>
    <i name="e_0_energy">   -376.99991766 </i>
   </energy>
  </scstep>
  <scstep>
   <time name="total">    1.24    1.24</time>
   <energy>
    <i name="e_fr_energy">   -235.57875148 </i>
    <i name="e_wo_entrp">   -235.57875148 </i>
    <i name="e_0_energy">   -235.57875148 </i>
   </energy>
  </scstep>
  <scstep>
   <time name="total">    1.30    1.30</time>
   <energy>
    <i name="e_fr_energy">   -232.20373888 </i>
    <i name="e_wo_entrp">   -232.20373888 </i>
    <i name="e_0_energy">   -232.20373888 </i>
   </energy>
  </scstep>
  <scstep>
   <time name="total">    1.39    1.40</time>
   <energy>
    <i name="e_fr_energy">   -232.80327072 </i>
    <i name="e_wo_entrp">   -232.80327072 </i>
    <i name="e_0_energy">   -232.80327072 </i>
   </energy>
  </scstep>
  <scstep>
   <time name="total">    1.38    1.38</time>
   <energy>
    <i name="e_fr_energy">   -233.69544348 </i>
    <i name="e_wo_entrp">   -233.69544348 </i>
    <i name="e_0_energy">   -233.69544348 </i>
   </energy>
  </scstep>
  <scstep>
   <time name="total">    1.39    1.39</time>
   <energy>
    <i name="e_fr_energy">   -233.46767039 </i>
    <i name="e_wo_entrp">   -233.46767039 </i>
    <i name="e_0_energy">   -233.46767039 </i>
   </energy>
  </scstep>
  <scstep>
   <time name="total">    1.39    1.40</time>
   <energy>
    <i name="e_fr_energy">   -233.45885907 </i>
    <i name="e_wo_entrp">   -233.45885907 </i>
    <i name="e_0_energy">   -233.45885907 </i>
   </energy>
  </scstep>
  <scstep>
   <time name="total">    1.23    1.23</time>
   <energy>
    <i name="e_fr_energy">   -235.96942515 </i>
    <i name="e_wo_entrp">   -235.96942515 </i>
    <i name="e_0_energy">   -235.96942515 </i>
   </energy>
  </scstep>
  <scstep>
   <time name="total">    1.30    1.30</time>
   <energy>
    <i name="e_fr_energy">   -232.10085578 </i>
    <i name="e_wo_entrp">   -232.10085578 </i>
    <i name="e_0_energy">   -232.10085578 </i>
   </energy>
  </scstep>
  <scstep>
   <time name="total">    1.39    1.39</time>
   <energy>
    <i name="e_fr_energy">   -232.79534561 </i>
    <i name="e_wo_entrp">   -232.79534561 </i>
    <i name="e_0_energy">   -232.79534561 </i>
   </energy>
  </scstep>
  <scstep>
   <time name="total">    1.43    1.43</time>
   <energy>
    <i name="e_fr_energy">   -233.70254033 </i>
    <i name="e_wo_entrp">   -233.70254033 </i>
    <i name="e_0_energy">   -233.70254033 </i>
   </energy>
  </scstep>
  <scstep>
   <time name="total">    1.50    1.57</time>
   <energy>
    <i name="e_fr_energy">   -233.47006550 </i>
    <i name="e_wo_entrp">   -233.47006550 </i>
    <i name="e_0_energy">   -233.47006550 </i>
   </energy>
  </scstep>
  <scstep>
   <time name="total">    1.40    1.40</time>
   <energy>
    <i name="e_fr_energy">   -233.46137188 </i>
    <i name="e_wo_entrp">   -233.46137188 </i>
    <i name="e_0_energy">   -233.46137188 </i>
   </energy>
  </scstep>
  <scstep>
   <time name="total">    1.22    1.22</time>
   <energy>
    <i name="e_fr_energy">   -389.94973830 </i>
    <i name="e_wo_entrp">   -389.94973830 </i>
    <i name="e_0_energy">   -389.94973830 </i>
   </energy>
  </scstep>
  <scstep>
   <time name="total">    1.33    1.33</time>
   <energy>
    <i name="e_fr_energy">   -376.67724195 </i>
    <i name="e_wo_entrp">   -376.67724195 </i>
    <i name="e_0_energy">   -376.67724195 </i>
   </energy>
  </scstep>
  <scstep>
   <time name="total">    1.40    1.41</time>
   <energy>
    <i name="e_fr_energy">   -376.58544909 </i>
    <i name="e_wo_entrp">   -376.58544909 </i>
    <i name="e_0_energy">   -376.58544909 </i>
   </energy>
  </scstep>
  <scstep>
   <time name="total">    1.43    1.43</time>
   <energy>
    <i name="e_fr_energy">   -377.15532205 </i>
    <i name="e_wo_entrp">   -377.15532205 </i>
    <i name="e_0_energy">   -377.15532205 </i>
   </energy>
  </scstep>
  <scstep>
   <time name="total">    1.39    1.39</time>
   <energy>
    <i name="e_fr_energy">   -376.98750037 </i>
    <i name="e_wo_entrp">   -376.98750037 </i>
    <i name="e_0_energy">   -376.98750037 </i>
   </energy>
  </scstep>
  <scstep>
   <time name="total">    1.39    1.40</time>
   <energy>
    <i name="e_fr_energy">   -376.99831328 </i>
    <i name="e_wo_entrp">   -376.99831328 </i>
    <i name="e_0_energy">   -376.99831328 </i>
   </energy>
  </scstep>
  <scstep>
   <time name="total">    1.22    1.22</time>
   <energy>
    <i name="e_fr_energy">   -235.57729777 </i>
    <i name="e_wo_entrp">   -235.57729777 </i>
    <i name="e_0_energy">   -235.57729777 </i>
   </energy>
  </scstep>
  <scstep>
   <time name="total">    1.31    1.31</time>
   <energy>
    <i name="e_fr_energy">   -232.13849000 </i>
    <i name="e_wo_entrp">   -232.13849000 </i>
    <i name="e_0_energy">   -232.13849000 </i>
   </energy>
  </scstep>
  <scstep>
   <time name="total">    1.44    1.47</time>
   <energy>
    <i name="e_fr_energy">   -232.79463331 </i>
    <i name="e_wo_entrp">   -232.79463331 </i>
    <i name="e_0_energy">   -232.79463331 </i>
   </energy>
  </scstep>
  <scstep>
   <time name="total">    1.46    1.52</time>
   <energy>
    <i name="e_fr_energy">   -233.70107642 </i>
    <i name="e_wo_entrp">   -233.70107642 </i>
    <i name="e_0_energy">   -233.70107642 </i>
   </energy>
  </scstep>
  <scstep>
   <time name="total">    1.40    1.40</time>
   <energy>
    <i name="e_fr_energy">   -233.46382934 </i>
    <i name="e_wo_entrp">   -233.46382934 </i>
    <i name="e_0_energy">   -233.46382934 </i>
   </energy>
  </scstep>
  <scstep>
   <time name="total">    1.40    1.41</time>
   <energy>
    <i name="e_fr_energy">   -233.45573562 </i>
    <i name="e_wo_entrp">   -233.45573562 </i>
    <i name="e_0_energy">   -233.45573562 </i>
   </energy>
  </scstep>
  <scstep>
   <time name="total">    1.28    1.28</time>
   <energy>
    <i name="e_fr_energy">   -235.96807325 </i>
    <i name="e_wo_entrp">   -235.96807325 </i>
    <i name="e_0_energy">   -235.96807325 </i>
   </energy>
  </scstep>
  <scstep>
   <time name="total">    1.32    1.32</time>
   <energy>
    <i name="e_fr_energy">   -232.24024438 </i>
    <i name="e_wo_entrp">   -232.24024438 </i>
    <i name="e_0_energy">   -232.24024438 </i>
   </energy>
  </scstep>
  <scstep>
   <time name="total">    1.38    1.39</time>
   <energy>
    <i name="e_fr_energy">   -232.80096788 </i>
    <i name="e_wo_entrp">   -232.80096788 </i>
    <i name="e_0_energy">   -232.80096788 </i>
   </energy>
  </scstep>
  <scstep>
   <time name="total">    1.39    1.40</time>
   <energy>
    <i name="e_fr_energy">   -233.69470124 </i>
    <i name="e_wo_entrp">   -233.69470124 </i>
    <i name="e_0_energy">   -233.69470124 </i>
   </energy>
  </scstep>
  <scstep>
   <time name="total">    1.39    1.39</time>
   <energy>
    <i name="e_fr_energy">   -233.46246853 </i>
    <i name="e_wo_entrp">   -233.46246853 </i>
    <i name="e_0_energy">   -233.46246853 </i>
   </energy>
  </scstep>
  <scstep>
   <time name="total">    1.40    1.40</time>
   <energy>
    <i name="e_fr_energy">   -233.45358982 </i>
    <i name="e_wo_entrp">   -233.45358982 </i>
    <i name="e_0_energy">   -233.45358982 </i>
   </energy>
  </scstep>
  <scstep>
   <time name="total">    1.24    1.24</time>
   <energy>
    <i name="e_fr_energy">   -390.04023815 </i>
    <i name="e_wo_entrp">   -390.04023815 </i>
    <i name="e_0_energy">   -390.04023815 </i>
   </energy>
  </scstep>
  <scstep>
   <time name="total">    1.38    1.40</time>
   <energy>
    <i name="e_fr_energy">   -376.78537145 </i>
    <i name="e_wo_entrp">   -376.78537145 </i>
    <i name="e_0_energy">   -376.78537145 </i>
   </energy>
  </scstep>
  <scstep>
   <time name="total">    1.38    1.47</time>
   <energy>
    <i name="e_fr_energy">   -376.66662256 </i>
    <i name="e_wo_entrp">   -376.66662256 </i>
    <i name="e_0_energy">   -376.66662256 </i>
   </energy>
  </scstep>
  <scstep>
   <time name="total">    1.38    1.38</time>
   <energy>
    <i name="e_fr_energy">   -377.09696998 </i>
    <i name="e_wo_entrp">   -377.09696998 </i>
    <i name="e_0_energy">   -377.09696998 </i>
   </energy>
  </scstep>
  <scstep>
   <time name="total">    1.39    1.39</time>
   <energy>
    <i name="e_fr_energy">   -377.05343748 </i>
    <i name="e_wo_entrp">   -377.05343748 </i>
    <i name="e_0_energy">   -377.05343748 </i>
   </energy>
  </scstep>
  <scstep>
   <time name="total">    1.47    1.47</time>
   <energy>
    <i name="e_fr_energy">   -377.02876740 </i>
    <i name="e_wo_entrp">   -377.02876740 </i>
    <i name="e_0_energy">   -377.02876740 </i>
   </energy>
  </scstep>
  <scstep>
   <time name="total">    1.29    1.29</time>
   <energy>
    <i name="e_fr_energy">   -235.57839626 </i>
    <i name="e_wo_entrp">   -235.57839626 </i>
    <i name="e_0_energy">   -235.57839626 </i>
   </energy>
  </scstep>
  <scstep>
   <time name="total">    1.30    1.30</time>
   <energy>
    <i name="e_fr_energy">   -232.20350964 </i>
    <i name="e_wo_entrp">   -232.20350964 </i>
    <i name="e_0_energy">   -232.20350964 </i>
   </energy>
  </scstep>
  <scstep>
   <time name="total">    1.38    1.38</time>
   <energy>
    <i name="e_fr_energy">   -232.80243569 </i>
    <i name="e_wo_entrp">   -232.80243569 </i>
    <i name="e_0_energy">   -232.80243569 </i>
   </energy>
  </scstep>
  <scstep>
   <time name="total">    1.39    1.39</time>
   <energy>
    <i name="e_fr_energy">   -233.69455719 </i>
    <i name="e_wo_entrp">   -233.69455719 </i>
    <i name="e_0_energy">   -233.69455719 </i>
   </energy>
  </scstep>
  <scstep>
   <time name="total">    1.41    1.41</time>
   <energy>
    <i name="e_fr_energy">   -233.46734243 </i>
    <i name="e_wo_entrp">   -233.46734243 </i>
    <i name="e_0_energy">   -233.46734243 </i>
   </energy>
  </scstep>
  <scstep>
   <time name="total">    1.41    1.41</time>
   <energy>
    <i name="e_fr_energy">   -233.45838109 </i>
    <i name="e_wo_entrp">   -233.45838109 </i>
    <i name="e_0_energy">   -233.45838109 </i>
   </energy>
  </scstep>
  <scstep>
   <time name="total">    1.19    1.27</time>
   <energy>
    <i name="e_fr_energy">   -235.96912242 </i>
    <i name="e_wo_entrp">   -235.96912242 </i>
    <i name="e_0_energy">   -235.96912242 </i>
   </energy>
  </scstep>
  <scstep>
   <time name="total">    1.37    1.37</time>
   <energy>
    <i name="e_fr_energy">   -232.10095120 </i>
    <i name="e_wo_entrp">   -232.10095120 </i>
    <i name="e_0_energy">   -232.10095120 </i>
   </energy>
  </scstep>
  <scstep>
   <time name="total">    1.38    1.38</time>
   <energy>
    <i name="e_fr_energy">   -232.79541268 </i>
    <i name="e_wo_entrp">   -232.79541268 </i>
    <i name="e_0_energy">   -232.79541268 </i>
   </energy>
  </scstep>
  <scstep>
   <time name="total">    1.41    1.41</time>
   <energy>
    <i name="e_fr_energy">   -233.70251933 </i>
    <i name="e_wo_entrp">   -233.70251933 </i>
    <i name="e_0_energy">   -233.70251933 </i>
   </energy>
  </scstep>
  <scstep>
   <time name="total">    1.47    1.47</time>
   <energy>
    <i name="e_fr_energy">   -233.46973020 </i>
    <i name="e_wo_entrp">   -233.46973020 </i>
    <i name="e_0_energy">   -233.46973020 </i>
   </energy>
  </scstep>
  <scstep>
   <time name="total">    1.48    1.48</time>
   <energy>
    <i name="e_fr_energy">   -233.46109326 </i>
    <i name="e_wo_entrp">   -233.46109326 </i>
    <i name="e_0_energy">   -233.46109326 </i>
   </energy>
  </scstep>
  <scstep>
   <time name="total">    1.22    1.22</time>
   <energy>
    <i name="e_fr_energy">   -389.94963769 </i>
    <i name="e_wo_entrp">   -389.94963769 </i>
    <i name="e_0_energy">   -389.94963769 </i>
   </energy>
  </scstep>
  <scstep>
   <time name="total">    1.33    1.33</time>
   <energy>
    <i name="e_fr_energy">   -376.71531340 </i>
    <i name="e_wo_entrp">   -376.71531340 </i>
    <i name="e_0_energy">   -376.71531340 </i>
   </energy>
  </scstep>
  <scstep>
   <time name="total">    1.39    1.39</time>
   <energy>
    <i name="e_fr_energy">   -376.61718440 </i>
    <i name="e_wo_entrp">   -376.61718440 </i>
    <i name="e_0_energy">   -376.61718440 </i>
   </energy>
  </scstep>
  <scstep>
   <time name="total">    1.38    1.38</time>
   <energy>
    <i name="e_fr_energy">   -377.18167362 </i>
    <i name="e_wo_entrp">   -377.18167362 </i>
    <i name="e_0_energy">   -377.18167362 </i>
   </energy>
  </scstep>
  <scstep>
   <time name="total">    1.40    1.40</time>
   <energy>
    <i name="e_fr_energy">   -377.02049163 </i>
    <i name="e_wo_entrp">   -377.02049163 </i>
    <i name="e_0_energy">   -377.02049163 </i>
   </energy>
  </scstep>
  <scstep>
   <time name="total">    1.41    1.41</time>
   <energy>
    <i name="e_fr_energy">   -377.02783366 </i>
    <i name="e_wo_entrp">   -377.02783366 </i>
    <i name="e_0_energy">   -377.02783366 </i>
   </energy>
  </scstep>
  <array name="born_charges" >
   <dimension dim="1">ion</dimension>
   <set>
    <v>      -1.06458883      -0.00102367       0.00001667 </v>
    <v>       0.00049556      -1.06635476      -0.00000107 </v>
    <v>      -0.00000228      -0.00000283      -0.21970266 </v>
   </set>
   <set>
    <v>      -1.06607104       0.00103077      -0.00001775 </v>
    <v>      -0.00048802      -1.06437478      -0.00000561 </v>
    <v>       0.00000070       0.00000202      -0.21966245 </v>
   </set>
   <set>
    <v>       0.53128302      -0.00056390       0.00018524 </v>
    <v>       0.00074249       0.53207233      -0.00043920 </v>
    <v>      -0.00017632       0.00015797       0.09741493 </v>
   </set>
   <set>
    <v>       0.53192682       0.00055002       0.00017879 </v>
    <v>      -0.00075313       0.53128803      -0.00034860 </v>
    <v>      -0.00017861       0.00015514       0.09738962 </v>
   </set>
   <set>
    <v>       0.53127151      -0.00054167      -0.00017875 </v>
    <v>       0.00075313       0.53207234       0.00043590 </v>
    <v>       0.00017850      -0.00015855       0.09739841 </v>
   </set>
   <set>
    <v>       0.53192288       0.00055128      -0.00018439 </v>
    <v>      -0.00075263       0.53129821       0.00035238 </v>
    <v>       0.00017734      -0.00016092       0.09738051 </v>
   </set>
  </array>
  <dynmat>
   <varray name="hessian" >
    <v>      -0.20941751       0.00000036       0.00000055       0.00003574      -0.00000137       0.00000008       0.18131296      -0.00000116      -0.00004908       0.00001158       0.00000060       0.00000187       0.18130977      -0.00000223       0.00004944       0.00001187       0.00000045      -0.00000185 </v>
    <v>       0.00000036      -0.20936903      -0.00000032       0.00000122      -0.00001280       0.00000007       0.00000031       0.18133289       0.00006386       0.00000090       0.00000582       0.00000430       0.00000174       0.18135782      -0.00006354       0.00000021       0.00001596      -0.00000468 </v>
    <v>       0.00000055      -0.00000032      -0.31375068       0.00000060      -0.00000114       0.00028209      -0.00000420       0.00000307       0.27160514       0.00000073      -0.00000122      -0.00026684       0.00000315      -0.00000118       0.27158908      -0.00000032       0.00000030      -0.00026180 </v>
    <v>       0.00003574       0.00000122       0.00000060      -0.20950342      -0.00000168      -0.00000014       0.00002346      -0.00000043       0.00000201       0.18133318       0.00000244      -0.00004762       0.00002136      -0.00000034      -0.00000118       0.18133277       0.00000246       0.00004609 </v>
    <v>      -0.00000137      -0.00001280      -0.00000114      -0.00000168      -0.20923497       0.00000140      -0.00000124      -0.00002686      -0.00000351       0.00000091       0.18132661       0.00006146      -0.00000066      -0.00000545       0.00000166      -0.00000043       0.18134065      -0.00006032 </v>
    <v>       0.00000008       0.00000007       0.00028209      -0.00000014       0.00000140      -0.31384666      -0.00000081      -0.00000109      -0.00025381      -0.00000110       0.00000720       0.27162580      -0.00000040       0.00000027      -0.00025265       0.00000150      -0.00000800       0.27161517 </v>
    <v>       0.18131296       0.00000031      -0.00000420       0.00002346      -0.00000124      -0.00000081      -0.30177911       0.00000389       0.00000534       0.00052481      -0.00000103      -0.00000005      -0.01317151       0.00000065       0.00000215       0.00041492      -0.00000047       0.00000151 </v>
    <v>      -0.00000116       0.18133289       0.00000307      -0.00000043      -0.00002686      -0.00000109       0.00000389      -0.30212031      -0.00003167       0.00000114       0.00057144       0.00000495       0.00000050      -0.01308537       0.00004117      -0.00000066       0.00047895      -0.00001530 </v>
    <v>      -0.00004908       0.00006386       0.27160514       0.00000201      -0.00000351      -0.00025381       0.00000534      -0.00003167      -0.53441280      -0.00000040      -0.00000644       0.00167509      -0.00000134      -0.00005850       0.06264536      -0.00000580       0.00000171       0.00041358 </v>
    <v>       0.00001158       0.00000090       0.00000073       0.18133318       0.00000091      -0.00000110       0.00052481       0.00000114      -0.00000040      -0.30186731      -0.00000519      -0.00000404       0.00041103       0.00000074       0.00000522      -0.01315026       0.00000045      -0.00000267 </v>
    <v>       0.00000060       0.00000582      -0.00000122       0.00000244       0.18132661       0.00000720      -0.00000103       0.00057144      -0.00000644      -0.00000519      -0.30196716       0.00001415       0.00000056       0.00049867      -0.00000315       0.00000003      -0.01312509      -0.00001394 </v>
    <v>       0.00000187       0.00000430      -0.00026684      -0.00004762       0.00006146       0.27162580      -0.00000005       0.00000495       0.00167509      -0.00000404       0.00001415      -0.53449703      -0.00000343       0.00001457       0.00040836       0.00000340       0.00002937       0.06266665 </v>
    <v>       0.18130977       0.00000174       0.00000315       0.00002136      -0.00000066      -0.00000040      -0.01317151       0.00000050      -0.00000134       0.00041103       0.00000056      -0.00000343      -0.30174166      -0.00000107      -0.00000030       0.00052138      -0.00000028      -0.00000170 </v>
    <v>      -0.00000223       0.18135782      -0.00000118      -0.00000034      -0.00000545       0.00000027       0.00000065      -0.01308537      -0.00005850       0.00000074       0.00049867       0.00001457      -0.00000107      -0.30248612       0.00005218      -0.00000010       0.00062601      -0.00000694 </v>
    <v>       0.00004944      -0.00006354       0.27158908      -0.00000118       0.00000166      -0.00025265       0.00000215       0.00004117       0.06264536       0.00000522      -0.00000315       0.00040836      -0.00000030       0.00005218      -0.53438069       0.00000038       0.00000695       0.00167687 </v>
    <v>       0.00001187       0.00000021      -0.00000032       0.18133277      -0.00000043       0.00000150       0.00041492      -0.00000066      -0.00000580      -0.01315026       0.00000003       0.00000340       0.00052138      -0.00000010       0.00000038      -0.30187276      -0.00000089       0.00000151 </v>
[...]
       <r>   12.1772    0.0000 </r>
       <r>   12.7574    0.0000 </r>
      </set>
      <set comment="kpoint 72">
       <r>   -9.1253    1.0000 </r>
       <r>   -9.1171    1.0000 </r>
       <r>   -8.8499    1.0000 </r>
       <r>   -8.8407    1.0000 </r>
       <r>   -2.1419    1.0000 </r>
       <r>   -2.1148    1.0000 </r>
       <r>   -1.7106    1.0000 </r>
       <r>   -1.7045    1.0000 </r>
       <r>   -0.6986    1.0000 </r>
       <r>   -0.6361    1.0000 </r>
       <r>   -0.0729    1.0000 </r>
       <r>   -0.0071    1.0000 </r>
       <r>    0.8012    1.0000 </r>
       <r>    0.8224    1.0000 </r>
       <r>    1.4309    1.0000 </r>
       <r>    1.4618    1.0000 </r>
       <r>    2.6623    1.0000 </r>
       <r>    2.6779    1.0000 </r>
       <r>    5.2941    0.0000 </r>
       <r>    5.3951    0.0000 </r>
       <r>    5.8727    0.0000 </r>
       <r>    5.9476    0.0000 </r>
       <r>    6.3986    0.0000 </r>
       <r>    6.5574    0.0000 </r>
       <r>    7.4781    0.0000 </r>
       <r>    7.6893    0.0000 </r>
       <r>   10.1542    0.0000 </r>
       <r>   10.1974    0.0000 </r>
       <r>   11.7325    0.0000 </r>
       <r>   11.7589    0.0000 </r>
       <r>   12.5066    0.0000 </r>
       <r>   12.7066    0.0000 </r>
      </set>
      <set comment="kpoint 73">
       <r>   -9.1094    1.0000 </r>
       <r>   -9.1023    1.0000 </r>
       <r>   -8.8583    1.0000 </r>
       <r>   -8.8508    1.0000 </r>
       <r>   -2.4625    1.0000 </r>
       <r>   -2.4356    1.0000 </r>
       <r>   -1.6621    1.0000 </r>
       <r>   -1.6457    1.0000 </r>
       <r>   -0.8855    1.0000 </r>
       <r>   -0.8117    1.0000 </r>
       <r>   -0.0088    1.0000 </r>
       <r>    0.0103    1.0000 </r>
       <r>    1.3113    1.0000 </r>
       <r>    1.3487    1.0000 </r>
       <r>    1.6705    1.0000 </r>
       <r>    1.6824    1.0000 </r>
       <r>    2.6499    1.0000 </r>
       <r>    2.6678    1.0000 </r>
       <r>    5.3597    0.0000 </r>
       <r>    5.3900    0.0000 </r>
       <r>    5.8347    0.0000 </r>
       <r>    5.9080    0.0000 </r>
       <r>    6.9143    0.0000 </r>
       <r>    7.0684    0.0000 </r>
       <r>    7.2436    0.0000 </r>
       <r>    7.4043    0.0000 </r>
       <r>    9.5292    0.0000 </r>
       <r>    9.5857    0.0000 </r>
       <r>   11.4136    0.0000 </r>
       <r>   11.5766    0.0000 </r>
       <r>   11.6064    0.0000 </r>
       <r>   12.0421    0.0000 </r>
      </set>
      <set comment="kpoint 74">
       <r>   -9.1013    1.0000 </r>
       <r>   -9.0948    1.0000 </r>
       <r>   -8.8624    1.0000 </r>
       <r>   -8.8559    1.0000 </r>
       <r>   -2.5999    1.0000 </r>
       <r>   -2.5730    1.0000 </r>
       <r>   -1.6367    1.0000 </r>
       <r>   -1.6122    1.0000 </r>
       <r>   -0.9439    1.0000 </r>
       <r>   -0.8683    1.0000 </r>
       <r>    0.0079    1.0000 </r>
       <r>    0.0120    1.0000 </r>
       <r>    1.2792    1.0000 </r>
       <r>    1.2986    1.0000 </r>
       <r>    2.2069    1.0000 </r>
       <r>    2.2189    1.0000 </r>
       <r>    2.5165    1.0000 </r>
       <r>    2.5199    1.0000 </r>
       <r>    5.3533    0.0000 </r>
       <r>    5.3570    0.0000 </r>
       <r>    5.8438    0.0000 </r>
       <r>    5.9001    0.0000 </r>
       <r>    6.9421    0.0000 </r>
       <r>    7.2017    0.0000 </r>
       <r>    7.4057    0.0000 </r>
       <r>    7.4457    0.0000 </r>
       <r>    9.2658    0.0000 </r>
       <r>    9.3409    0.0000 </r>
       <r>   10.9911    0.0000 </r>
       <r>   11.2257    0.0000 </r>
       <r>   11.3215    0.0000 </r>
       <r>   11.7599    0.0000 </r>
      </set>
     </set>
    </set>
   </array>
  </eigenvalues>
  <separator name="orbital magnetization" >
   <v name="MAGDIPOLOUT">      0.00000000      0.00000000      0.00000000</v>
  </separator>
  <dos>
   <i name="efermi">      3.55193824 </i>
   <total>
    <array>
     <dimension dim="1">gridpoints</dimension>
     <dimension dim="2">spin</dimension>
     <field>energy</field>
     <field>total</field>
     <field>integrated</field>
     <set>
      <set comment="spin 1">
       <r>   -12.1303     0.0000     0.0000 </r>
       <r>   -12.0412     0.0000     0.0000 </r>
       <r>   -11.9521     0.0000     0.0000 </r>
       <r>   -11.8631     0.0000     0.0000 </r>
       <r>   -11.7740     0.0000     0.0000 </r>
       <r>   -11.6849     0.0000     0.0000 </r>
       <r>   -11.5958     0.0000     0.0000 </r>
       <r>   -11.5068     0.0000     0.0000 </r>
       <r>   -11.4177     0.0000     0.0000 </r>
       <r>   -11.3286     0.0000     0.0000 </r>
       <r>   -11.2396     0.0000     0.0000 </r>
       <r>   -11.1505     0.0000     0.0000 </r>
       <r>   -11.0614     0.0000     0.0000 </r>
       <r>   -10.9723     0.0110     0.0010 </r>
       <r>   -10.8833     0.2561     0.0238 </r>
       <r>   -10.7942     1.2645     0.1364 </r>
       <r>   -10.7051     0.6658     0.1957 </r>
       <r>   -10.6161     1.0226     0.2868 </r>
       <r>   -10.5270     1.8166     0.4486 </r>
       <r>   -10.4379     0.8777     0.5268 </r>
       <r>   -10.3488     0.0774     0.5337 </r>
       <r>   -10.2598     2.3087     0.7393 </r>
       <r>   -10.1707     1.4728     0.8705 </r>
       <r>   -10.0816     1.4260     0.9975 </r>
       <r>    -9.9926     0.3438     1.0282 </r>
       <r>    -9.9035     0.7561     1.0955 </r>
       <r>    -9.8144     3.4615     1.4038 </r>
       <r>    -9.7253     1.5011     1.5375 </r>
       <r>    -9.6363     2.4250     1.7535 </r>
       <r>    -9.5472     2.9457     2.0159 </r>
       <r>    -9.4581     4.6499     2.4301 </r>
       <r>    -9.3691     6.8369     3.0391 </r>
       <r>    -9.2800     4.1157     3.4057 </r>
       <r>    -9.1909     4.5648     3.8122 </r>
       <r>    -9.1018    10.1610     4.7173 </r>
       <r>    -9.0128     7.4842     5.3839 </r>
       <r>    -8.9237     9.1472     6.1987 </r>
       <r>    -8.8346    10.2820     7.1145 </r>
       <r>    -8.7455     6.7058     7.7118 </r>
       <r>    -8.6565     3.0787     7.9861 </r>
       <r>    -8.5674     0.1564     8.0000 </r>
       <r>    -8.4783     0.0002     8.0000 </r>
       <r>    -8.3893     0.0000     8.0000 </r>
       <r>    -8.3002     0.0000     8.0000 </r>
       <r>    -8.2111     0.0000     8.0000 </r>
       <r>    -8.1220     0.0000     8.0000 </r>
       <r>    -8.0330     0.0000     8.0000 </r>
       <r>    -7.9439     0.0000     8.0000 </r>
       <r>    -7.8548     0.0000     8.0000 </r>
       <r>    -7.7658     0.0000     8.0000 </r>
       <r>    -7.6767     0.0000     8.0000 </r>
       <r>    -7.5876     0.0000     8.0000 </r>
       <r>    -7.4985     0.0000     8.0000 </r>
       <r>    -7.4095     0.0000     8.0000 </r>
       <r>    -7.3204     0.0000     8.0000 </r>
       <r>    -7.2313     0.0000     8.0000 </r>
       <r>    -7.1423     0.0000     8.0000 </r>
       <r>    -7.0532     0.0000     8.0000 </r>
       <r>    -6.9641     0.0000     8.0000 </r>
       <r>    -6.8750     0.0000     8.0000 </r>
       <r>    -6.7860     0.0000     8.0000 </r>
       <r>    -6.6969     0.0000     8.0000 </r>
       <r>    -6.6078     0.0000     8.0000 </r>
       <r>    -6.5188     0.0000     8.0000 </r>
       <r>    -6.4297     0.0000     8.0000 </r>
       <r>    -6.3406     0.0000     8.0000 </r>
       <r>    -6.2515     0.0000     8.0000 </r>
       <r>    -6.1625     0.0000     8.0000 </r>
       <r>    -6.0734     0.0000     8.0000 </r>
       <r>    -5.9843     0.0000     8.0000 </r>
       <r>    -5.8952     0.0000     8.0000 </r>
       <r>    -5.8062     0.0000     8.0000 </r>
       <r>    -5.7171     0.0000     8.0000 </r>
       <r>    -5.6280     0.0000     8.0000 </r>
       <r>    -5.5390     0.0000     8.0000 </r>
       <r>    -5.4499     0.0000     8.0000 </r>
       <r>    -5.3608     0.0000     8.0000 </r>
       <r>    -5.2717     0.0000     8.0000 </r>
       <r>    -5.1827     0.0000     8.0000 </r>
       <r>    -5.0936     0.0000     8.0000 </r>
       <r>    -5.0045     0.0000     8.0000 </r>
       <r>    -4.9155     0.0000     8.0000 </r>
       <r>    -4.8264     0.0000     8.0000 </r>
       <r>    -4.7373     0.0000     8.0000 </r>
       <r>    -4.6482     0.0000     8.0000 </r>
       <r>    -4.5592     0.0000     8.0000 </r>
       <r>    -4.4701     0.0000     8.0000 </r>
       <r>    -4.3810     0.0000     8.0000 </r>
       <r>    -4.2920     0.0000     8.0000 </r>
       <r>    -4.2029     0.0000     8.0000 </r>
       <r>    -4.1138     0.0000     8.0000 </r>
       <r>    -4.0247     0.0000     8.0000 </r>
       <r>    -3.9357     0.0000     8.0000 </r>
       <r>    -3.8466     0.0000     8.0000 </r>
       <r>    -3.7575     0.0000     8.0000 </r>
       <r>    -3.6685     0.0000     8.0000 </r>
       <r>    -3.5794     0.0000     8.0000 </r>
       <r>    -3.4903     0.0000     8.0000 </r>
       <r>    -3.4012     0.0000     8.0000 </r>
       <r>    -3.3122     0.0000     8.0000 </r>
       <r>    -3.2231     0.0000     8.0000 </r>
       <r>    -3.1340     0.0000     8.0000 </r>
       <r>    -3.0449     0.0000     8.0000 </r>
       <r>    -2.9559     0.0000     8.0000 </r>
       <r>    -2.8668     0.0000     8.0000 </r>
       <r>    -2.7777     0.0000     8.0000 </r>
       <r>    -2.6887     0.0031     8.0003 </r>
       <r>    -2.5996     0.3393     8.0305 </r>
       <r>    -2.5105     0.8671     8.1077 </r>
       <r>    -2.4214     3.9836     8.4626 </r>
       <r>    -2.3324     2.4961     8.6849 </r>
       <r>    -2.2433     1.1954     8.7914 </r>
       <r>    -2.1542     6.9331     9.4089 </r>
       <r>    -2.0652     7.5844    10.0845 </r>
       <r>    -1.9761     4.7722    10.5095 </r>
       <r>    -1.8870     8.4995    11.2666 </r>
       <r>    -1.7979     7.8717    11.9677 </r>
       <r>    -1.7089     8.7517    12.7473 </r>
       <r>    -1.6198     6.4113    13.3183 </r>
       <r>    -1.5307     1.1474    13.4205 </r>
       <r>    -1.4417     1.2315    13.5302 </r>
       <r>    -1.3526     1.5655    13.6697 </r>
       <r>    -1.2635     2.9059    13.9285 </r>
       <r>    -1.1744     2.4863    14.1500 </r>
       <r>    -1.0854     1.7845    14.3089 </r>
       <r>    -0.9963     1.0213    14.3999 </r>
       <r>    -0.9072     2.2168    14.5973 </r>
       <r>    -0.8182     4.6600    15.0124 </r>
       <r>    -0.7291     8.1396    15.7374 </r>
       <r>    -0.6400    13.6509    16.9533 </r>
       <r>    -0.5509     7.8251    17.6503 </r>
       <r>    -0.4619     6.5600    18.2347 </r>
       <r>    -0.3728     3.8220    18.5751 </r>
       <r>    -0.2837     0.9682    18.6613 </r>
       <r>    -0.1946     1.1887    18.7672 </r>
       <r>    -0.1056     5.2789    19.2374 </r>
       <r>    -0.0165    12.2510    20.3286 </r>
       <r>     0.0726    13.2192    21.5061 </r>
       <r>     0.1616     6.1426    22.0532 </r>
       <r>     0.2507     4.9219    22.4916 </r>
       <r>     0.3398     5.1835    22.9533 </r>
       <r>     0.4289     2.9023    23.2119 </r>
       <r>     0.5179     0.3243    23.2407 </r>
       <r>     0.6070     3.6569    23.5665 </r>
       <r>     0.6961     3.9623    23.9194 </r>
       <r>     0.7851     3.1390    24.1990 </r>
       <r>     0.8742     5.7205    24.7085 </r>
       <r>     0.9633     4.6259    25.1206 </r>
       <r>     1.0524     2.9226    25.3809 </r>
       <r>     1.1414     4.0441    25.7411 </r>
       <r>     1.2305     8.7156    26.5174 </r>
       <r>     1.3196     5.3761    26.9963 </r>
       <r>     1.4086     6.8100    27.6028 </r>
       <r>     1.4977     9.3149    28.4325 </r>
       <r>     1.5868     8.3495    29.1763 </r>
       <r>     1.6759     4.1292    29.5440 </r>
       <r>     1.7649     3.9541    29.8962 </r>
       <r>     1.8540     5.9496    30.4262 </r>
       <r>     1.9431     3.5270    30.7403 </r>
       <r>     2.0321     2.6662    30.9778 </r>
       <r>     2.1212     4.3182    31.3625 </r>
       <r>     2.2103     4.3462    31.7496 </r>
       <r>     2.2994     5.2151    32.2141 </r>
       <r>     2.3884     7.6978    32.8998 </r>
       <r>     2.4775     8.0886    33.6202 </r>
       <r>     2.5666     2.4397    33.8375 </r>
       <r>     2.6557     6.2804    34.3969 </r>
       <r>     2.7447     5.9430    34.9263 </r>
       <r>     2.8338     1.9188    35.0972 </r>
       <r>     2.9229     3.1391    35.3768 </r>
       <r>     3.0119     4.2311    35.7537 </r>
       <r>     3.1010     1.0691    35.8489 </r>
       <r>     3.1901     0.5878    35.9013 </r>
       <r>     3.2792     0.7888    35.9715 </r>
       <r>     3.3682     0.2936    35.9977 </r>
       <r>     3.4573     0.0260    36.0000 </r>
       <r>     3.5464     0.0000    36.0000 </r>
       <r>     3.6354     0.0000    36.0000 </r>
       <r>     3.7245     0.0000    36.0000 </r>
       <r>     3.8136     0.0000    36.0000 </r>
       <r>     3.9027     0.0000    36.0000 </r>
       <r>     3.9917     0.0000    36.0000 </r>
       <r>     4.0808     0.0000    36.0000 </r>
       <r>     4.1699     0.0000    36.0000 </r>
       <r>     4.2589     0.0000    36.0000 </r>
       <r>     4.3480     0.0000    36.0000 </r>
       <r>     4.4371     0.0000    36.0000 </r>
       <r>     4.5262     0.0000    36.0000 </r>
       <r>     4.6152     0.0000    36.0000 </r>
       <r>     4.7043     0.0002    36.0000 </r>
       <r>     4.7934     0.1165    36.0104 </r>
       <r>     4.8824     0.4900    36.0540 </r>
       <r>     4.9715     0.6676    36.1135 </r>
       <r>     5.0606     3.2221    36.4005 </r>
       <r>     5.1497     6.1389    36.9473 </r>
       <r>     5.2387     3.9229    37.2967 </r>
       <r>     5.3278     9.5244    38.1451 </r>
       <r>     5.4169    14.0886    39.4000 </r>
       <r>     5.5060     4.9374    39.8398 </r>
       <r>     5.5950     6.1476    40.3873 </r>
       <r>     5.6841    13.1720    41.5606 </r>
       <r>     5.7732     9.2466    42.3842 </r>
       <r>     5.8622    10.0803    43.2821 </r>
       <r>     5.9513     9.0591    44.0890 </r>
       <r>     6.0404     6.0985    44.6322 </r>
       <r>     6.1295     5.1266    45.0888 </r>
       <r>     6.2185     6.2052    45.6415 </r>
       <r>     6.3076     4.0999    46.0067 </r>
       <r>     6.3967     5.2513    46.4745 </r>
       <r>     6.4857     6.4872    47.0523 </r>
       <r>     6.5748     4.6782    47.4690 </r>
       <r>     6.6639     1.8627    47.6349 </r>
       <r>     6.7530     3.2165    47.9214 </r>
       <r>     6.8420     1.7089    48.0736 </r>
       <r>     6.9311     5.1843    48.5354 </r>
       <r>     7.0202     2.4423    48.7530 </r>
       <r>     7.1092     2.2215    48.9508 </r>
       <r>     7.1983     2.4864    49.1723 </r>
       <r>     7.2874     5.6477    49.6753 </r>
       <r>     7.3765     4.8755    50.1096 </r>
       <r>     7.4655     7.1257    50.7443 </r>
       <r>     7.5546     3.1893    51.0284 </r>
       <r>     7.6437     2.1893    51.2234 </r>
       <r>     7.7327     3.3144    51.5186 </r>
       <r>     7.8218     2.0802    51.7039 </r>
       <r>     7.9109     1.2317    51.8136 </r>
       <r>     8.0000     1.6945    51.9646 </r>
       <r>     8.0890     0.3938    51.9996 </r>
       <r>     8.1781     0.0042    52.0000 </r>
       <r>     8.2672     0.0000    52.0000 </r>
       <r>     8.3563     0.0000    52.0000 </r>
       <r>     8.4453     0.0000    52.0000 </r>
       <r>     8.5344     0.0000    52.0000 </r>
       <r>     8.6235     0.0000    52.0000 </r>
       <r>     8.7125     0.0000    52.0000 </r>
       <r>     8.8016     0.0000    52.0000 </r>
       <r>     8.8907     0.0000    52.0000 </r>
       <r>     8.9798     0.0003    52.0000 </r>
       <r>     9.0688     0.0557    52.0050 </r>
       <r>     9.1579     0.0980    52.0137 </r>
       <r>     9.2470     0.1429    52.0265 </r>
       <r>     9.3360     0.5262    52.0733 </r>
       <r>     9.4251     0.6200    52.1285 </r>
       <r>     9.5142     1.2388    52.2389 </r>
       <r>     9.6033     2.5076    52.4622 </r>
       <r>     9.6923     1.4368    52.5902 </r>
       <r>     9.7814     1.9312    52.7622 </r>
       <r>     9.8705     1.1758    52.8670 </r>
       <r>     9.9595     1.3908    52.9909 </r>
       <r>    10.0486     0.6542    53.0491 </r>
       <r>    10.1377     3.0598    53.3217 </r>
       <r>    10.2268     3.6061    53.6429 </r>
       <r>    10.3158     5.6367    54.1449 </r>
       <r>    10.4049     2.6814    54.3838 </r>
       <r>    10.4940     1.8051    54.5446 </r>
       <r>    10.5830     3.5318    54.8591 </r>
       <r>    10.6721     2.9274    55.1199 </r>
       <r>    10.7612     1.3486    55.2400 </r>
       <r>    10.8503     4.0692    55.6025 </r>
       <r>    10.9393     3.7640    55.9377 </r>
       <r>    11.0284     2.5704    56.1667 </r>
       <r>    11.1175     3.0698    56.4401 </r>
       <r>    11.2066     5.8081    56.9575 </r>
       <r>    11.2956     5.9756    57.4897 </r>
       <r>    11.3847     2.1011    57.6769 </r>
       <r>    11.4738     3.1334    57.9560 </r>
       <r>    11.5628     2.9595    58.2196 </r>
       <r>    11.6519     8.0358    58.9353 </r>
       <r>    11.7410     4.4763    59.3340 </r>
       <r>    11.8301     4.2576    59.7133 </r>
       <r>    11.9191     2.9823    59.9789 </r>
       <r>    12.0082     0.8789    60.0572 </r>
       <r>    12.0973     3.9377    60.4079 </r>
       <r>    12.1863     3.7512    60.7421 </r>
       <r>    12.2754     4.4814    61.1412 </r>
       <r>    12.3645     2.1578    61.3334 </r>
       <r>    12.4536     2.9066    61.5923 </r>
       <r>    12.5426     2.8825    61.8491 </r>
       <r>    12.6317     2.5763    62.0785 </r>
       <r>    12.7208     4.7198    62.4989 </r>
       <r>    12.8098     3.6201    62.8214 </r>
       <r>    12.8989     5.5748    63.3180 </r>
       <r>    12.9880     2.8467    63.5715 </r>
       <r>    13.0771     0.8405    63.6464 </r>
       <r>    13.1661     0.9811    63.7338 </r>
       <r>    13.2552     1.3310    63.8523 </r>
       <r>    13.3443     0.8731    63.9301 </r>
       <r>    13.4333     0.7356    63.9956 </r>
       <r>    13.5224     0.0493    64.0000 </r>
       <r>    13.6115     0.0000    64.0000 </r>
       <r>    13.7006     0.0000    64.0000 </r>
       <r>    13.7896     0.0000    64.0000 </r>
       <r>    13.8787     0.0000    64.0000 </r>
       <r>    13.9678     0.0000    64.0000 </r>
       <r>    14.0569     0.0000    64.0000 </r>
       <r>    14.1459     0.0000    64.0000 </r>
       <r>    14.2350     0.0000    64.0000 </r>
       <r>    14.3241     0.0000    64.0000 </r>
       <r>    14.4131     0.0000    64.0000 </r>
       <r>    14.5022     0.0000    64.0000 </r>
       <r>    14.5913     0.0000    64.0000 </r>
      </set>
     </set>
    </array>
   </total>
  </dos>
 </calculation>
 <structure name="finalpos" >
  <crystal>
   <varray name="basis" >
    <v>       3.18301609       0.00000000       0.00000000 </v>
    <v>      -1.59150805       2.75657210       0.00000000 </v>
    <v>       0.00000000       0.00000000      14.87273815 </v>
   </varray>
   <i name="volume">    130.49657774 </i>
   <varray name="rec_basis" >
    <v>       0.31416743       0.18138470       0.00000000 </v>
    <v>       0.00000000       0.36276940       0.00000000 </v>
    <v>       0.00000000       0.00000000       0.06723711 </v>
   </varray>
  </crystal>
  <varray name="positions" >
   <v>       0.66666700       0.33333300       0.25000000 </v>
   <v>       0.33333300       0.66666700       0.75000000 </v>
   <v>       0.33333300       0.66666700       0.14485922 </v>
   <v>       0.66666700       0.33333300       0.64485922 </v>
   <v>       0.33333300       0.66666700       0.35514078 </v>
   <v>       0.66666700       0.33333300       0.85514078 </v>
  </varray>
 </structure>
</modeling>
